----- GAMESS execution script 'rungms' -----
This job is running on host halstead-a047.rcac.purdue.edu
under operating system Linux at Mon Dec 28 15:10:31 EST 2020
Available scratch disk space (Kbyte units) at beginning of the job is
Filesystem         1K-blocks          Used     Available Use% Mounted on
f02            2459942518784 1349402636288 1110539882496  55% /scratch/halstead
GAMESS temporary binary files will be written to /scratch/halstead/c/cviquezr
GAMESS supplementary output files will be written to /home/cviquezr/scr
Copying input file mol1_64_s.inp to your run's scratch directory...
The generated host list is
localhost

 Distributed Data Interface kickoff program.
 Initiating 1 compute processes on 1 nodes to run the following command:
 /depot/lslipche/apps/gamess/gamess_lyuda/gamess.03.x mol1_64_s 

          ******************************************************
          *         GAMESS VERSION =  1 MAY 2012 (R1)          *
          *             FROM IOWA STATE UNIVERSITY             *
          * M.W.SCHMIDT, K.K.BALDRIDGE, J.A.BOATZ, S.T.ELBERT, *
          *   M.S.GORDON, J.H.JENSEN, S.KOSEKI, N.MATSUNAGA,   *
          *          K.A.NGUYEN, S.J.SU, T.L.WINDUS,           *
          *       TOGETHER WITH M.DUPUIS, J.A.MONTGOMERY       *
          *         J.COMPUT.CHEM.  14, 1347-1363(1993)        *
          **************** 64 BIT INTEL VERSION ****************

  SINCE 1993, STUDENTS AND POSTDOCS WORKING AT IOWA STATE UNIVERSITY
  AND ALSO IN THEIR VARIOUS JOBS AFTER LEAVING ISU HAVE MADE IMPORTANT
  CONTRIBUTIONS TO THE CODE:
     IVANA ADAMOVIC, CHRISTINE AIKENS, YURI ALEXEEV, POOJA ARORA,
     ANDREY ASADCHEV, ROB BELL, PRADIPTA BANDYOPADHYAY, JONATHAN BENTZ,
     BRETT BODE, GALINA CHABAN, WEI CHEN, CHEOL HO CHOI, PAUL DAY,
     ALBERT DEFUSCO, TIM DUDLEY, DMITRI FEDOROV, GRAHAM FLETCHER,
     MARK FREITAG, KURT GLAESEMANN, DAN KEMP, GRANT MERRILL,
     NORIYUKI MINEZAWA, JONATHAN MULLIN, TAKESHI NAGATA,
     SEAN NEDD, HEATHER NETZLOFF, BOSILJKA NJEGIC, RYAN OLSON, MIKE PAK,
     JIM SHOEMAKER, LYUDMILA SLIPCHENKO, SAROM SOK, JIE SONG,
     TETSUYA TAKETSUGU, SIMON WEBB, SOOHAENG YOO, FEDERICO ZAHARIEV

  ADDITIONAL CODE HAS BEEN PROVIDED BY COLLABORATORS IN OTHER GROUPS:
     IOWA STATE UNIVERSITY:
          JOE IVANIC, LAIMUTIS BYTAUTAS, KLAUS RUEDENBERG
     UNIVERSITY OF TOKYO: KIMIHIKO HIRAO, TAKAHITO NAKAJIMA,
          TAKAO TSUNEDA, MUNEAKI KAMIYA, SUSUMU YANAGISAWA,
          KIYOSHI YAGI, MAHITO CHIBA, SEIKEN TOKURA, NAOAKI KAWAKAMI
     UNIVERSITY OF AARHUS: FRANK JENSEN
     UNIVERSITY OF IOWA: VISVALDAS KAIRYS, HUI LI
     NATIONAL INST. OF STANDARDS AND TECHNOLOGY: WALT STEVENS, DAVID GARMER
     UNIVERSITY OF PISA: BENEDETTA MENNUCCI, JACOPO TOMASI
     UNIVERSITY OF MEMPHIS: HENRY KURTZ, PRAKASHAN KORAMBATH
     UNIVERSITY OF ALBERTA: TOBY ZENG, MARIUSZ KLOBUKOWSKI
     UNIVERSITY OF NEW ENGLAND: MARK SPACKMAN
     MIE UNIVERSITY: HIROAKI UMEDA
     MICHIGAN STATE UNIVERSITY:
          KAROL KOWALSKI, MARTA WLOCH, JEFFREY GOUR, JESSE LUTZ, PIOTR PIECUCH
     UNIVERSITY OF SILESIA: MONIKA MUSIAL, STANISLAW KUCHARSKI
     FACULTES UNIVERSITAIRES NOTRE-DAME DE LA PAIX:
          OLIVIER QUINET, BENOIT CHAMPAGNE
     UNIVERSITY OF CALIFORNIA - SANTA BARBARA: BERNARD KIRTMAN
     INSTITUTE FOR MOLECULAR SCIENCE:
          KAZUYA ISHIMURA, MICHIO KATOUDA, AND SHIGERU NAGASE
     UNIVERSITY OF NOTRE DAME: DAN CHIPMAN
     KYUSHU UNIVERSITY:
          HARUYUKI NAKANO,
          FENG LONG GU, JACEK KORCHOWIEC, MARCIN MAKOWSKI, AND YURIKO AOKI,
          HIROTOSHI MORI AND EISAKU MIYOSHI
     PENNSYLVANIA STATE UNIVERSITY:
          TZVETELIN IORDANOV, CHET SWALINA, JONATHAN SKONE,
          SHARON HAMMES-SCHIFFER
     WASEDA UNIVERSITY:
          MASATO KOBAYASHI, TOMOKO AKAMA, TSUGUKI TOUMA,
          TAKESHI YOSHIKAWA, YASUHIRO IKABATA, HIROMI NAKAI
     UNIVERSITY OF NEBRASKA:
          PEIFENG SU, DEJUN SI, NANDUN THELLAMUREGE, YALI WANG, HUI LI
     UNIVERSITY OF ZURICH:
          ROBERTO PEVERATI, KIM BALDRIDGE
     N. COPERNICUS UNIVERSITY AND JACKSON STATE UNIVERSITY:
          MARIA BARYSZ

 EXECUTION OF GAMESS BEGUN Mon Dec 28 15:10:31 2020

            ECHO OF THE FIRST FEW INPUT CARDS -
 INPUT CARD> $contrl units=angs local=boys runtyp=makefp                                    
 INPUT CARD> mult=1 icharg=0 icut=11 $end                                                   
 INPUT CARD> $system timlim=99999   mwords=500 $end                                         
 INPUT CARD> $scf soscf=.f. dirscf=.t. diis=.t. CONV=1.0d-06  $end                          
 INPUT CARD> $basis gbasis=n31 ngauss=6 npfunc=0 ndfunc=1 nffunc=0                          
 INPUT CARD> diffs=.f. diffsp=.f. $end                                                      
 INPUT CARD> $DAMP IFTTYP(1)=2,0 IFTFIX(1)=1,1 thrsh=500.0 $end                             
 INPUT CARD> $MAKEFP  POL=.t. DISP=.t. CHTR=.f.  EXREP=.t. $end                             
 INPUT CARD> $data                                                                          
 INPUT CARD> mol1_64                                                                        
 INPUT CARD> C1                                                                             
 INPUT CARD>C 6 2.64 2.77 2.89                                                              
 INPUT CARD>H 1 1.97 2.04 2.60                                                              
 INPUT CARD>H 1 2.06 3.70 2.72                                                              
 INPUT CARD>H 1 2.92 2.65 3.92                                                              
 INPUT CARD>H 1 3.53 2.76 2.26                                                              
 INPUT CARD> $end                                                                           
  500000000 WORDS OF MEMORY AVAILABLE

     BASIS OPTIONS
     -------------
     GBASIS=N31          IGAUSS=       6      POLAR=POPN31  
     NDFUNC=       1     NFFUNC=       0     DIFFSP=       F
     NPFUNC=       0      DIFFS=       F     BASNAM=        


     RUN TITLE
     ---------
  mol1_64                                                                        

 THE POINT GROUP OF THE MOLECULE IS C1      
 THE ORDER OF THE PRINCIPAL AXIS IS     0

 ATOM      ATOMIC                      COORDINATES (BOHR)
           CHARGE         X                   Y                   Z
 C           6.0     4.9888766076        5.2345409860        5.4613081045
 H           1.0     3.7227601958        3.8550410150        4.9132875681
 H           1.0     3.8928355347        6.9919861546        5.1400546866
 H           1.0     5.5179998841        5.0077738675        7.4077258719
 H           1.0     6.6707327367        5.2156437261        4.2707807323

          INTERNUCLEAR DISTANCES (ANGS.)
          ------------------------------

                1 C          2 H          3 H          4 H          5 H     

   1 C       0.0000000    1.0324243 *  1.1091438 *  1.0741043 *  1.0904586 *
   2 H       1.0324243 *  0.0000000    1.6667633 *  1.7369514 *  1.7514565 *
   3 H       1.1091438 *  1.6667633 *  0.0000000    1.8116567 *  1.8044667 *
   4 H       1.0741043 *  1.7369514 *  1.8116567 *  0.0000000    1.7719481 *
   5 H       1.0904586 *  1.7514565 *  1.8044667 *  1.7719481 *  0.0000000  

  * ... LESS THAN  3.000


     ATOMIC BASIS SET
     ----------------
 THE CONTRACTED PRIMITIVE FUNCTIONS HAVE BEEN UNNORMALIZED
 THE CONTRACTED BASIS FUNCTIONS ARE NOW NORMALIZED TO UNITY

  SHELL TYPE  PRIMITIVE        EXPONENT          CONTRACTION COEFFICIENT(S)

 C         

      1   S       1          3047.5248800    0.001834737132
      1   S       2           457.3695180    0.014037322813
      1   S       3           103.9486850    0.068842622264
      1   S       4            29.2101553    0.232184443216
      1   S       5             9.2866630    0.467941348435
      1   S       6             3.1639270    0.362311985337

      2   L       7             7.8682723   -0.119332419775    0.068999066591
      2   L       8             1.8812885   -0.160854151696    0.316423960957
      2   L       9             0.5442493    1.143456437840    0.744308290898

      3   L      10             0.1687145    1.000000000000    1.000000000000

      4   D      11             0.8000000    1.000000000000

 H         

      5   S      12            18.7311370    0.033494604338
      5   S      13             2.8253944    0.234726953484
      5   S      14             0.6401217    0.813757326146

      6   S      15             0.1612778    1.000000000000

 H         

      7   S      16            18.7311370    0.033494604338
      7   S      17             2.8253944    0.234726953484
      7   S      18             0.6401217    0.813757326146

      8   S      19             0.1612778    1.000000000000

 H         

      9   S      20            18.7311370    0.033494604338
      9   S      21             2.8253944    0.234726953484
      9   S      22             0.6401217    0.813757326146

     10   S      23             0.1612778    1.000000000000

 H         

     11   S      24            18.7311370    0.033494604338
     11   S      25             2.8253944    0.234726953484
     11   S      26             0.6401217    0.813757326146

     12   S      27             0.1612778    1.000000000000

 TOTAL NUMBER OF BASIS SET SHELLS             =   12
 NUMBER OF CARTESIAN GAUSSIAN BASIS FUNCTIONS =   23
 NUMBER OF ELECTRONS                          =   10
 CHARGE OF MOLECULE                           =    0
 SPIN MULTIPLICITY                            =    1
 NUMBER OF OCCUPIED ORBITALS (ALPHA)          =    5
 NUMBER OF OCCUPIED ORBITALS (BETA )          =    5
 TOTAL NUMBER OF ATOMS                        =    5
 THE NUCLEAR REPULSION ENERGY IS       13.6139397273

     $CONTRL OPTIONS
     ---------------
 SCFTYP=RHF          RUNTYP=MAKEFP       EXETYP=RUN     
 MPLEVL=       0     CITYP =NONE         CCTYP =NONE         VBTYP =NONE    
 DFTTYP=NONE         TDDFT =NONE    
 MULT  =       1     ICHARG=       0     NZVAR =       0     COORD =UNIQUE  
 PP    =NONE         RELWFN=NONE         LOCAL =BOYS         NUMGRD=       F
 ISPHER=      -1     NOSYM =       0     MAXIT =      30     UNITS =ANGS    
 PLTORB=       F     MOLPLT=       F     AIMPAC=       F     FRIEND=        
 NPRINT=       7     IREST =       0     GEOM  =INPUT   
 NORMF =       0     NORMP =       0     ITOL  =      20     ICUT  =      11
 INTTYP=BEST         GRDTYP=BEST         QMTTOL= 1.0E-06

     $SYSTEM OPTIONS
     ---------------
  REPLICATED MEMORY=   500000000 WORDS (ON EVERY NODE).
 DISTRIBUTED MEMDDI=           0 MILLION WORDS IN AGGREGATE,
 MEMDDI DISTRIBUTED OVER   1 PROCESSORS IS           0 WORDS/PROCESSOR.
 TOTAL MEMORY REQUESTED ON EACH PROCESSOR=   500000000 WORDS.
 TIMLIM=       99999.00 MINUTES, OR      69.4 DAYS.
 PARALL= F  BALTYP=  DLB     KDIAG=    0  COREFL= F
 MXSEQ2=     300 MXSEQ3=     150

     INPUT FOR POTENTIAL-DERIVED CHARGES 
     -----------------------------------
     VDWSCL=    0.00   RMAX=    3.00   DELR=    0.80
     VDWINC=    0.10 PTDENS=    0.28
     LAYER =      25  NFREQ=      30 MAXPDC=  100000
     CONSTR=CHARGE    UNITS=ANGS      PTSEL=GEODESIC
     CENTER=  0.0000  0.0000  0.0000
     DPOLE =  0.0000  0.0000  0.0000
     QPOLE =  0.0000  0.0000  0.0000  0.0000  0.0000  0.0000


          ----------------
          PROPERTIES INPUT
          ----------------

     MOMENTS            FIELD           POTENTIAL          DENSITY
 IEMOM =       1   IEFLD =       0   IEPOT =       0   IEDEN =       0
 WHERE =COMASS     WHERE =NUCLEI     WHERE =NUCLEI     WHERE =NUCLEI  
 OUTPUT=BOTH       OUTPUT=BOTH       OUTPUT=BOTH       OUTPUT=BOTH    
 IEMINT=       0   IEFINT=       0                     IEDINT=       0
                                                       MORB  =       0
          EXTRAPOLATION IN EFFECT
          DIIS IN EFFECT
 ORBITAL PRINTING OPTION: NPREO=     1    23     2     1

     -------------------------------
     INTEGRAL TRANSFORMATION OPTIONS
     -------------------------------
     NWORD  =            0
     CUTOFF = 1.0E-09     MPTRAN =       0
     DIRTRF =       T     AOINTS =DUP     

          -----------------------------
          LOCALIZATION INPUT PARAMETERS
          -----------------------------
           LOCAL=BOYS          NOUTA=       1
          PRTLOC=       F      NOUTB=       0
          MAXLOC=     250     CVGLOC=1.00E-06
           FCORE=       T     SYMLOC=       F
          MOIDON=       F     EDCOMP=       F
          DIPDCM=       F      NPROT=       0
          QADDCM=       F     DEPRNT=       F
          POLNUM=       F     ORIENT=       F
          POLDYN=       T      VMTOL=1.50E-01
          NPRDTL=       2
          MOOUTA =      1

          ----------------------
          INTEGRAL INPUT OPTIONS
          ----------------------
 NOPK  =       1 NORDER=       0 SCHWRZ=       T

     ------------------------------------------
     THE POINT GROUP IS C1 , NAXIS= 0, ORDER= 1
     ------------------------------------------

     DIMENSIONS OF THE SYMMETRY SUBSPACES ARE
 A   =   23

 ..... DONE SETTING UP THE RUN .....
 STEP CPU TIME =     0.01 TOTAL CPU TIME =        0.0 (    0.0 MIN)
 TOTAL WALL CLOCK TIME=        0.0 SECONDS, CPU UTILIZATION IS  50.00%

          --------------
          MAKEFP OPTIONS
          --------------
          FRAG=FRAGNAME
          SCREEN= T    POL   = T    EXREP = T
          DISP  = T    CHTR  = F    CTVVO =

          ********************
          1 ELECTRON INTEGRALS
          ********************
 ...... END OF ONE-ELECTRON INTEGRALS ......
 STEP CPU TIME =     0.00 TOTAL CPU TIME =        0.0 (    0.0 MIN)
 TOTAL WALL CLOCK TIME=        0.0 SECONDS, CPU UTILIZATION IS  50.00%

          -------------
          GUESS OPTIONS
          -------------
          GUESS =HUCKEL            NORB  =       0          NORDER=       0
          MIX   =       F          PRTMO =       F          PUNMO =       F
          TOLZ  = 1.0E-08          TOLE  = 1.0E-05
          SYMDEN=       F          PURIFY=       F

 INITIAL GUESS ORBITALS GENERATED BY HUCKEL   ROUTINE.
 HUCKEL GUESS REQUIRES      7663 WORDS.

 SYMMETRIES FOR INITIAL GUESS ORBITALS FOLLOW.   BOTH SET(S).
     5 ORBITALS ARE OCCUPIED (    1 CORE ORBITALS).
     2=A        3=A        4=A        5=A        6=A        7=A        8=A   
     9=A       10=A       11=A       12=A       13=A       14=A       15=A   
 ...... END OF INITIAL ORBITAL SELECTION ......
 STEP CPU TIME =     0.00 TOTAL CPU TIME =        0.0 (    0.0 MIN)
 TOTAL WALL CLOCK TIME=        0.0 SECONDS, CPU UTILIZATION IS  50.00%

                    ----------------------
                    AO INTEGRAL TECHNOLOGY
                    ----------------------
     S,P,L SHELL ROTATED AXIS INTEGRALS, REPROGRAMMED BY
        KAZUYA ISHIMURA (IMS) AND JOSE SIERRA (SYNSTAR).
     S,P,D,L SHELL ROTATED AXIS INTEGRALS PROGRAMMED BY
        KAZUYA ISHIMURA (INSTITUTE FOR MOLECULAR SCIENCE).
     S,P,D,F,G SHELL TO TOTAL QUARTET ANGULAR MOMENTUM SUM 5,
        ERIC PROGRAM BY GRAHAM FLETCHER (ELORET AND NASA ADVANCED
        SUPERCOMPUTING DIVISION, AMES RESEARCH CENTER).
     S,P,D,F,G,L SHELL GENERAL RYS QUADRATURE PROGRAMMED BY
        MICHEL DUPUIS (PACIFIC NORTHWEST NATIONAL LABORATORY).

          --------------------
          2 ELECTRON INTEGRALS
          --------------------

 DIRECT SCF METHOD SKIPS INTEGRAL STORAGE ON DISK.
 DIRECT TRANSFORMATION SKIPS AO INTEGRAL STORAGE ON DISK.
  ...... END OF TWO-ELECTRON INTEGRALS .....
 STEP CPU TIME =     0.00 TOTAL CPU TIME =        0.0 (    0.0 MIN)
 TOTAL WALL CLOCK TIME=        0.0 SECONDS, CPU UTILIZATION IS  33.33%

          --------------------------
                 RHF SCF CALCULATION
          --------------------------

     NUCLEAR ENERGY =        13.6139397273
     MAXIT =   30     NPUNCH=    2
     EXTRAP=T  DAMP=F  SHIFT=F  RSTRCT=F  DIIS=T  DEM=F  SOSCF=F
     DENSITY MATRIX CONV=  2.00E-06
     MEMORY REQUIRED FOR RHF ITERS=     50242 WORDS.

 DIRECT SCF CALCULATION, SCHWRZ=T   FDIFF=T,  DIRTHR=  0.00E+00 NITDIR=10
 SCHWARZ INEQUALITY OVERHEAD:       276 INTEGRALS, T=        0.00

                                                                                   NONZERO     BLOCKS
 ITER EX DEM     TOTAL ENERGY        E CHANGE  DENSITY CHANGE    DIIS ERROR      INTEGRALS    SKIPPED
          * * *   INITIATING DIIS PROCEDURE   * * *
   1  0  0      -40.1086717603   -40.1086717603   0.162213296   0.395782030          32154          0
   2  1  0      -40.1861445617    -0.0774728014   0.051300769   0.046673344          32154          0
   3  2  0      -40.1903985687    -0.0042540070   0.016100875   0.021510252          32154          0
   4  3  0      -40.1910369505    -0.0006383818   0.004423927   0.003820817          32154          0
   5  4  0      -40.1910708129    -0.0000338624   0.000451844   0.000215981          32154          0
   6  5  0      -40.1910710915    -0.0000002786   0.000061792   0.000042477          32154          0
   7  6  0      -40.1910710968    -0.0000000052   0.000009023   0.000008686          32154          0
   8  7  0      -40.1910710969    -0.0000000002   0.000001076   0.000001024          32154          0
   9  8  0      -40.1910710969    -0.0000000000   0.000000230   0.000000189          32154          0

          -----------------
          DENSITY CONVERGED
          -----------------
     TIME TO FORM FOCK OPERATORS=       0.1 SECONDS (       0.0 SEC/ITER)
     FOCK TIME ON FIRST ITERATION=       0.0, LAST ITERATION=       0.0
     TIME TO SOLVE SCF EQUATIONS=       0.0 SECONDS (       0.0 SEC/ITER)

 FINAL RHF ENERGY IS      -40.1910710969 AFTER   9 ITERATIONS

          ------------
          EIGENVECTORS
          ------------

                      1          2          3          4          5
                  -11.2016    -0.9487    -0.5647    -0.5473    -0.5315
                     A          A          A          A          A   
    1  C  1  S    0.995595  -0.194469  -0.005722   0.001005  -0.000935
    2  C  1  S    0.028680   0.359574   0.010532   0.000059  -0.002207
    3  C  1  X   -0.000088  -0.014451   0.378760  -0.189789  -0.108707
    4  C  1  Y   -0.000038  -0.014525   0.079203  -0.109605   0.416292
    5  C  1  Z   -0.000034  -0.003922   0.212599   0.377212   0.063761
    6  C  1  S   -0.013482   0.358051   0.018295  -0.009067   0.015453
    7  C  1  X    0.000274  -0.004264   0.190015  -0.099211  -0.064726
    8  C  1  Y    0.000069  -0.001848   0.034587  -0.056357   0.222989
    9  C  1  Z    0.000131  -0.001832   0.105920   0.198709   0.032314
   10  C  1 XX   -0.002104   0.012346  -0.003671  -0.018254  -0.006578
   11  C  1 YY   -0.002143   0.007844  -0.024062   0.001411   0.014104
   12  C  1 ZZ   -0.002096   0.010222   0.028890   0.015807  -0.005541
   13  C  1 XY    0.000085   0.001491  -0.011989   0.006988  -0.032189
   14  C  1 XZ    0.000034   0.001880  -0.010136   0.028029   0.004905
   15  C  1 YZ    0.000025  -0.000062  -0.009009  -0.001955  -0.011318
   16  H  2  S    0.000032   0.149546  -0.227305   0.062736  -0.170477
   17  H  2  S    0.002756   0.039020  -0.173352   0.050769  -0.146827
   18  H  3  S    0.000091   0.127834  -0.091794  -0.035232   0.274990
   19  H  3  S    0.002419   0.036383  -0.068299  -0.030266   0.241688
   20  H  4  S    0.000016   0.134039   0.198276   0.216171  -0.006233
   21  H  4  S    0.002441   0.037356   0.155934   0.174469  -0.003148
   22  H  5  S    0.000040   0.129929   0.127154  -0.249614  -0.086964
   23  H  5  S    0.002405   0.036613   0.101760  -0.204903  -0.072679

                      6          7          8          9         10
                    0.2575     0.3223     0.3278     0.3382     0.7110
                     A          A          A          A          A   
    1  C  1  S   -0.156061  -0.008898   0.006272   0.006201   0.003447
    2  C  1  S    0.102318   0.004185  -0.001815   0.008192   0.016016
    3  C  1  X    0.004184   0.174837   0.067761   0.233606  -0.334260
    4  C  1  Y    0.031456  -0.235201   0.114103   0.125599  -0.578253
    5  C  1  Z   -0.003610  -0.056227  -0.263443   0.118524  -0.232943
    6  C  1  S    2.839872   0.246059  -0.195848  -0.302786  -0.157638
    7  C  1  X   -0.032301   0.844602   0.352296   1.283974   0.732752
    8  C  1  Y    0.094962  -1.137912   0.573962   0.683496   1.006240
    9  C  1  Z   -0.034029  -0.285923  -1.356181   0.660108   0.466507
   10  C  1 XX   -0.011817  -0.007289  -0.006553   0.002518   0.009837
   11  C  1 YY   -0.013389   0.008262  -0.001610   0.007740   0.015572
   12  C  1 ZZ   -0.013266  -0.004074   0.010618  -0.006301  -0.039018
   13  C  1 XY    0.001924  -0.012290   0.003865   0.008037   0.076968
   14  C  1 XZ    0.001282   0.005461   0.012047   0.003167   0.017414
   15  C  1 YZ    0.000592  -0.003910   0.001103   0.004282   0.034192
   16  H  2  S    0.019468  -0.034786   0.016498   0.054537   0.526477
   17  H  2  S   -0.996638  -0.680174   0.455625   2.119096   0.125819
   18  H  3  S   -0.002322   0.082079  -0.027872  -0.016734  -0.237492
   19  H  3  S   -1.123015   1.752502  -0.613631   0.167788   0.140662
   20  H  4  S    0.004421   0.002947   0.059204  -0.039947  -0.190651
   21  H  4  S   -1.031739  -0.152075   1.762594  -1.101752  -0.037771
   22  H  5  S    0.001828  -0.044016  -0.055036  -0.030514  -0.103177
   23  H  5  S   -1.057953  -1.232175  -1.359083  -0.786060  -0.034358

                     11         12         13         14         15
                    0.7283     0.7406     1.1630     1.1845     1.2084
                     A          A          A          A          A   
    1  C  1  S   -0.001623  -0.001872  -0.009981  -0.013933  -0.041952
    2  C  1  S   -0.017432  -0.034890   0.248385   0.199203   0.313347
    3  C  1  X    0.229837  -0.601279  -0.351839   0.447139   0.654194
    4  C  1  Y    0.140330   0.415535   0.812421   0.238766   0.166562
    5  C  1  Z   -0.676233  -0.114908   0.080447  -0.749754   0.525349
    6  C  1  S    0.068124   0.064861  -0.473803  -0.333185  -0.356813
    7  C  1  X   -0.412609   1.204007   0.461137  -0.594626  -0.886366
    8  C  1  Y   -0.267210  -0.692381  -1.068686  -0.316075  -0.228156
    9  C  1  Z    1.270973   0.280490  -0.106518   0.981812  -0.700049
   10  C  1 XX    0.054258  -0.017880   0.058256  -0.103454   0.040111
   11  C  1 YY    0.004841   0.081126  -0.095515   0.031795   0.161141
   12  C  1 ZZ   -0.058846  -0.071896   0.074684   0.100893  -0.158917
   13  C  1 XY   -0.010390  -0.043034   0.165407   0.041385   0.070595
   14  C  1 XZ   -0.078158   0.037406  -0.042531   0.176885   0.020343
   15  C  1 YZ    0.007923  -0.005843   0.053651   0.000423   0.056385
   16  H  2  S   -0.051737   0.056365   0.294623   0.131392   0.343197
   17  H  2  S   -0.012991   0.145362  -0.615010  -0.330416  -0.988142
   18  H  3  S    0.066546   0.468912  -0.903611  -0.180044  -0.050542
   19  H  3  S    0.014746   0.083401   1.659858   0.268785  -0.181081
   20  H  4  S   -0.452421  -0.243000   0.016747   0.484111  -0.859869
   21  H  4  S   -0.105378  -0.125331  -0.021887  -0.965418   1.325944
   22  H  5  S    0.419473  -0.330334   0.246871  -0.835666  -0.477567
   23  H  5  S    0.055305  -0.096028  -0.456672   1.491682   0.600779

                     16         17         18         19         20
                    1.2818     1.3148     1.9417     1.9454     2.5632
                     A          A          A          A          A   
    1  C  1  S    0.044984  -0.131610  -0.009563   0.012375   0.002774
    2  C  1  S   -1.389958  -1.621987  -0.073611   0.095932  -0.029419
    3  C  1  X    0.317606  -0.112637  -0.002387   0.000197  -0.126374
    4  C  1  Y    0.293448  -0.076090  -0.006654   0.005517   0.088767
    5  C  1  Z    0.101499  -0.045788   0.003707   0.003064  -0.019158
    6  C  1  S    2.811400   4.854481   0.262255  -0.340408   0.010456
    7  C  1  X   -0.404481  -0.034530  -0.012216   0.015052  -0.373712
    8  C  1  Y   -0.375385   0.020638   0.000839  -0.001106   0.220538
    9  C  1  Z   -0.128050  -0.020893  -0.006268   0.007762  -0.070058
   10  C  1 XX   -0.062937  -0.166815   0.555267  -0.602946  -0.191537
   11  C  1 YY   -0.051582  -0.109886  -0.465920   0.316617   0.866479
   12  C  1 ZZ   -0.132063  -0.062448  -0.096955   0.296277  -0.664215
   13  C  1 XY    0.083778  -0.006325  -0.372026  -0.130389  -0.513160
   14  C  1 XZ    0.053623  -0.044341   0.399859  -0.318402   0.403858
   15  C  1 YZ    0.035138   0.002614   0.586945   0.716125  -0.093717
   16  H  2  S    0.829940  -0.594210  -0.052868   0.064595  -0.024521
   17  H  2  S   -1.517303  -0.793652  -0.047156   0.062611  -0.057327
   18  H  3  S    0.350739  -0.546746  -0.048586   0.065533  -0.737537
   19  H  3  S   -0.578237  -0.731674  -0.041257   0.051915   0.084854
   20  H  4  S    0.315253  -0.384608  -0.048235   0.053307   0.319272
   21  H  4  S   -0.558789  -0.904882  -0.034946   0.050689  -0.011516
   22  H  5  S    0.266913  -0.417399  -0.040228   0.062008   0.512423
   23  H  5  S   -0.462628  -0.858091  -0.039429   0.046358  -0.050410

                     21         22         23
                    2.5889     2.6505     4.6165
                     A          A          A   
    1  C  1  S   -0.002721   0.005740  -0.486021
    2  C  1  S    0.017578  -0.024607   2.966058
    3  C  1  X   -0.050986   0.144589   0.013356
    4  C  1  Y   -0.040432   0.172511   0.014305
    5  C  1  Z    0.173503   0.086078   0.003535
    6  C  1  S    0.024285  -0.107109   2.429489
    7  C  1  X   -0.108880   0.265676  -0.044607
    8  C  1  Y   -0.089831   0.259597  -0.015116
    9  C  1  Z    0.395818   0.150096  -0.021022
   10  C  1 XX   -0.589124  -0.166899  -1.882094
   11  C  1 YY   -0.092771  -0.336629  -1.878761
   12  C  1 ZZ    0.676272   0.505169  -1.888978
   13  C  1 XY    0.139841  -0.913801  -0.017656
   14  C  1 XZ    0.844867  -0.264829  -0.004815
   15  C  1 YZ   -0.089013  -0.417449  -0.005763
   16  H  2  S   -0.087576   0.947702   0.162385
   17  H  2  S    0.013072  -0.108338  -0.548203
   18  H  3  S    0.128743  -0.282651   0.108437
   19  H  3  S   -0.013908   0.110556  -0.464526
   20  H  4  S   -0.742249  -0.334478   0.142735
   21  H  4  S    0.079322   0.048988  -0.487356
   22  H  5  S    0.637596  -0.198143   0.128976
   23  H  5  S   -0.083710   0.027346  -0.474773
 LVS DENSITY MATRIX
 1  1 2.05812230E+00-8.28611579E-02 9.31951467E-04 3.66731679E-03-3.35754076E-04
 1  2-1.66361835E-01-4.80889090E-05-6.98984003E-05 1.00023493E-04-8.97360103E-03
 1  3-7.06674740E-03-8.43706335E-03-1.99146074E-04-5.00021955E-04 1.94031978E-04
 1  4-5.50538500E-02-7.32861384E-03-4.90731581E-02-9.06631366E-03-5.39236543E-02
 1  5-1.10960068E-02-5.22478671E-02-1.08905406E-02
 2  1-8.28611579E-02 2.60463600E-01-1.96169461E-03-1.06300619E-02 1.41806786E-03
 2  2 2.57034456E-01 1.22582552E-03-1.58722212E-03 8.01924461E-04 8.70739368E-03
 2  3 4.94886328E-03 7.86557602E-03 9.67461789E-04 1.12222891E-03-1.83142906E-04
 2  4 1.03519921E-01 2.52217145E-02 8.87851440E-02 2.37946000E-02 1.00623807E-01
 2  5 3.03235095E-02 9.64735695E-02 2.89082198E-02
 3  1 9.31951467E-04-1.96169461E-03 3.83011021E-01 1.15134051E-02 4.11785052E-03
 3  2 3.59524339E-03 1.95794095E-01-8.35765437E-04-2.16184917E-03 5.22151991E-03
 3  3-2.20555917E-02 1.67944227E-02-4.77914156E-03-1.94386232E-02-3.62006668E-03
 3  4-1.63259341E-01-1.19794864E-01-1.19644044E-01-9.38481564E-02 6.56256062E-02
 3  5 5.15028910E-02 2.06221692E-01 1.69605278E-01
 4  1 3.66731679E-03-1.06300619E-02 1.15134051E-02 3.83592941E-01 4.18841081E-03
 4  2 7.35121190E-03-1.91888244E-03 2.03543660E-01 1.76880597E-04-2.41508401E-03
 4  3 7.39412408E-03-3.79886386E-03-3.02740373E-02-3.72072705E-03-1.04196157E-02
 4  4-1.96039720E-01-1.61968468E-01 2.18421627E-01 1.95983980E-01-2.50617720E-02
 4  5-1.72504356E-02-1.31926292E-03-5.39446304E-04
 5  1-3.35754076E-04 1.41806786E-03 4.11785052E-03 4.18841081E-03 3.83136888E-01
 5  2 1.01317600E-04-2.27388450E-03 6.39795980E-04 1.99083195E-01-1.62676553E-02
 5  3-7.42890500E-03 2.34223576E-02-3.94237812E-03 1.74466644E-02-6.74787108E-03
 5  4-7.22326030E-02-5.44375963E-02-3.15468803E-02-2.13394021E-02 2.45544657E-01
 5  5 1.97232223E-01-1.46358541E-01-1.20871018E-01
 6  1-1.66361835E-01 2.57034456E-01 3.59524339E-03 7.35121190E-03 1.01317600E-04
 6  2 2.58076109E-01 3.69067520E-03 7.85423310E-03-4.42798780E-05 8.89103877E-03
 6  3 5.20449465E-03 7.97553241E-03-4.94853662E-04 6.17899679E-04-6.89002109E-04
 6  4 9.23659605E-02 1.60662425E-02 9.73185622E-02 3.15082047E-02 9.91272921E-02
 6  5 2.91296032E-02 9.95329911E-02 3.13466285E-02
 7  1-4.80889090E-05 1.22582552E-03 1.95794095E-01-1.91888244E-03-2.27388450E-03
 7  2 3.69067520E-03 1.00312345E-01-4.52442296E-03-3.34317379E-03 2.97193466E-03
 7  3-1.13180127E-02 8.47156351E-03-1.78844802E-03-1.00647526E-02-1.57014973E-03
 7  4-7.80372306E-02-5.72767836E-02-6.45819545E-02-5.15463754E-02 3.21213533E-02
 7  5 2.47311793E-02 1.08000845E-01 8.84268808E-02
 8  1-6.98984003E-05-1.58722212E-03-8.35765437E-04 2.03543660E-01 6.39795980E-04
 8  2 7.85423310E-03-4.52442296E-03 1.08199845E-01-6.52046173E-04-1.17592316E-03
 8  3 4.43725725E-03-2.29247964E-03-1.59778978E-02-1.67984340E-03-5.45002196E-03
 8  4-9.93764121E-02-8.33390946E-02 1.19788835E-01 1.06340334E-01-1.39248328E-02
 8  5-1.04199036E-02-2.33356988E-03-2.41408176E-03
 9  1 1.00023493E-04 8.01924461E-04-2.16184917E-03 1.76880597E-04 1.99083195E-01
 9  2-4.42798780E-05-3.34317379E-03-6.52046173E-04 1.03503858E-01-8.50301095E-03
 9  3-3.65401177E-03 1.20058413E-02-1.84841012E-03 9.30214716E-03-3.41641661E-03
 9  4-3.47851642E-02-2.61777587E-02-1.61438002E-02-1.10094610E-02 1.27018950E-01
 9  5 1.02030634E-01-7.83614018E-02-6.47059842E-02
10  1-8.97360103E-03 8.70739368E-03 5.22151991E-03-2.41508401E-03-1.62676553E-02
10  2 8.89103877E-03 2.97193466E-03-1.17592316E-03-8.50301095E-03 1.09359241E-03
10  3 1.42281141E-04-4.55080562E-04 2.92828745E-04-9.67108921E-04 2.84755281E-04
10  4 5.31367440E-03 2.30275307E-03 1.49866631E-03-6.84917576E-04-5.95611514E-03
10  5-6.56086180E-03 1.25313483E-02 8.58346584E-03
11  1-7.06674740E-03 4.94886328E-03-2.20555917E-02 7.39412408E-03-7.42890500E-03
11  2 5.20449465E-03-1.13180127E-02 4.43725725E-03-3.65401177E-03 1.42281141E-04
11  3 1.69197301E-03-1.33261379E-03-2.88277529E-04 7.34631610E-04 1.07691253E-04
11  4 8.65273119E-03 4.94419240E-03 1.40798197E-02 1.05792090E-02-7.00457474E-03
11  5-6.52473553E-03-7.23868189E-03-6.96154816E-03
12  1-8.43706335E-03 7.86557602E-03 1.67944227E-02-3.79886386E-03 2.34223576E-02
12  2 7.97553241E-03 8.47156351E-03-2.29247964E-03 1.20058413E-02-4.55080562E-04
12  3-1.33261379E-03 2.44812213E-03-8.49682863E-05 2.84360486E-04-4.58267290E-04
12  4-6.20393051E-03-5.99796407E-03-6.85216825E-03-6.84788191E-03 2.10994957E-02
12  5 1.53137845E-02 3.07547163E-03 9.45812510E-04
13  1-1.99146074E-04 9.67461789E-04-4.77914156E-03-3.02740373E-02-3.94237812E-03
13  2-4.94853662E-04-1.78844802E-03-1.59778978E-02-1.84841012E-03 2.92828745E-04
13  3-2.88277529E-04-8.49682863E-05 2.46181412E-03 3.24616116E-04 9.17111473E-04
13  4 1.77478870E-02 1.44353054E-02-1.56133157E-02-1.42356385E-02-9.32199689E-04
13  5-9.86235550E-04-5.51461604E-04-5.15146046E-04
14  1-5.00021955E-04 1.12222891E-03-1.94386232E-02-3.72072705E-03 1.74466644E-02
14  2 6.17899679E-04-1.00647526E-02-1.67984340E-03 9.30214716E-03-9.67108921E-04
14  3 7.34631610E-04 2.84360486E-04 3.24616116E-04 1.83196015E-03-3.81929765E-05
14  4 7.01498698E-03 5.06693117E-03 3.06423513E-03 2.19591044E-03 8.54145080E-03
14  5 6.72899401E-03-1.69352854E-02-1.41246614E-02
15  1 1.94031978E-04-1.83142906E-04-3.62006668E-03-1.04196157E-02-6.74787108E-03
15  2-6.89002109E-04-1.57014973E-03-5.45002196E-03-3.41641661E-03 2.84755281E-04
15  3 1.07691253E-04-4.58267290E-04 9.17111473E-04-3.81929765E-05 4.26141947E-04
15  4 7.69049632E-03 6.24368113E-03-4.44862766E-03-4.12611672E-03-4.29303326E-03
15  5-3.42485486E-03 6.37113789E-04 6.08212409E-04
16  1-5.50538500E-02 1.03519921E-01-1.63259341E-01-1.96039720E-01-7.22326030E-02
16  2 9.23659605E-02-7.80372306E-02-9.93764121E-02-3.47851642E-02 5.31367440E-03
16  3 8.65273119E-03-6.20393051E-03 1.77478870E-02 7.01498698E-03 7.69049632E-03
16  4 2.14059703E-01 1.46909633E-01-1.82151216E-02-4.42704669E-02-2.07995082E-02
16  5-3.67517601E-02-2.06134374E-02-3.62397192E-02
17  1-7.32861384E-03 2.52217145E-02-1.19794864E-01-1.61968468E-01-5.44375963E-02
17  2 1.60662425E-02-5.72767836E-02-8.33390946E-02-2.61777587E-02 2.30275307E-03
17  3 4.94419240E-03-5.99796407E-03 1.44353054E-02 5.06693117E-03 6.24368113E-03
17  4 1.46909633E-01 1.11433515E-01-4.25272203E-02-4.75133004E-02-3.45029263E-02
17  5-3.24948154E-02-3.37531450E-02-3.18731734E-02
18  1-4.90731581E-02 8.87851440E-02-1.19644044E-01 2.18421627E-01-3.15468803E-02
18  2 9.73185622E-02-6.45819545E-02 1.19788835E-01-1.61438002E-02 1.49866631E-03
18  3 1.40798197E-02-6.85216825E-03-1.56133157E-02 3.06423513E-03-4.44862766E-03
18  4-1.82151216E-02-4.25272203E-02 2.03257418E-01 1.56897743E-01-2.07921738E-02
18  5-3.31015708E-02-2.03644791E-02-3.48547065E-02
19  1-9.06631366E-03 2.37946000E-02-9.38481564E-02 1.95983980E-01-2.13394021E-02
19  2 3.15082047E-02-5.15463754E-02 1.06340334E-01-1.10094610E-02-6.84917576E-04
19  3 1.05792090E-02-6.84788191E-03-1.42356385E-02 2.19591044E-03-4.12611672E-03
19  4-4.42704669E-02-4.75133004E-02 1.56897743E-01 1.30646820E-01-3.34285484E-02
19  5-3.06526616E-02-3.48407860E-02-3.39528174E-02
20  1-5.39236543E-02 1.00623807E-01 6.56256062E-02-2.50617720E-02 2.45544657E-01
20  2 9.91272921E-02 3.21213533E-02-1.39248328E-02 1.27018950E-01-5.95611514E-03
20  3-7.00457474E-03 2.10994957E-02-9.32199689E-04 8.54145080E-03-4.29303326E-03
20  4-2.07995082E-02-3.45029263E-02-2.07921738E-02-3.34285484E-02 2.08096387E-01
20  5 1.47319739E-01-2.15803717E-02-3.75136114E-02
21  1-1.10960068E-02 3.03235095E-02 5.15028910E-02-1.72504356E-02 1.97232223E-01
21  2 2.91296032E-02 2.47311793E-02-1.04199036E-02 1.02030634E-01-6.56086180E-03
21  3-6.52473553E-03 1.53137845E-02-9.86235550E-04 6.72899401E-03-3.42485486E-03
21  4-3.67517601E-02-3.24948154E-02-3.31015708E-02-3.06526616E-02 1.47319739E-01
21  5 1.12332554E-01-3.71898384E-02-3.65579840E-02
22  1-5.22478671E-02 9.64735695E-02 2.06221692E-01-1.31926292E-03-1.46358541E-01
22  2 9.95329911E-02 1.08000845E-01-2.33356988E-03-7.83614018E-02 1.25313483E-02
22  3-7.23868189E-03 3.07547163E-03-5.51461604E-04-1.69352854E-02 6.37113789E-04
22  4-2.06134374E-02-3.37531450E-02-2.03644791E-02-3.48407860E-02-2.15803717E-02
22  5-3.71898384E-02 2.05839208E-01 1.50327079E-01
23  1-1.08905406E-02 2.89082198E-02 1.69605278E-01-5.39446304E-04-1.20871018E-01
23  2 3.13466285E-02 8.84268808E-02-2.41408176E-03-6.47059842E-02 8.58346584E-03
23  3-6.96154816E-03 9.45812510E-04-5.15146046E-04-1.41246614E-02 6.08212409E-04
23  4-3.62397192E-02-3.18731734E-02-3.48547065E-02-3.39528174E-02-3.75136114E-02
23  5-3.65579840E-02 1.50327079E-01 1.17937963E-01
 ...... END OF RHF CALCULATION ......
 STEP CPU TIME =     0.05 TOTAL CPU TIME =        0.1 (    0.0 MIN)
 TOTAL WALL CLOCK TIME=        0.1 SECONDS, CPU UTILIZATION IS  60.00%

     ----------------------------------------------------------------
     PROPERTY VALUES FOR THE RHF   SELF-CONSISTENT FIELD WAVEFUNCTION
     ----------------------------------------------------------------

          -----------------
          ENERGY COMPONENTS
          -----------------

         WAVEFUNCTION NORMALIZATION =       1.0000000000

                ONE ELECTRON ENERGY =     -80.0225924136
                TWO ELECTRON ENERGY =      26.2175815894
           NUCLEAR REPULSION ENERGY =      13.6139397273
                                      ------------------
                       TOTAL ENERGY =     -40.1910710969

 ELECTRON-ELECTRON POTENTIAL ENERGY =      26.2175815894
  NUCLEUS-ELECTRON POTENTIAL ENERGY =    -120.2523296733
   NUCLEUS-NUCLEUS POTENTIAL ENERGY =      13.6139397273
                                      ------------------
             TOTAL POTENTIAL ENERGY =     -80.4208083566
               TOTAL KINETIC ENERGY =      40.2297372597
                 VIRIAL RATIO (V/T) =       1.9990388661

          ---------------------------------------
          MULLIKEN AND LOWDIN POPULATION ANALYSES
          ---------------------------------------

     ATOMIC MULLIKEN POPULATION IN EACH MOLECULAR ORBITAL

                      1          2          3          4          5

                  2.000000   2.000000   2.000000   2.000000   2.000000

    1             1.997963   1.341453   1.109103   1.106470   1.108335
    2             0.000588   0.194355   0.384431   0.028999   0.215227
    3             0.000475   0.149902   0.066285   0.010430   0.618093
    4             0.000495   0.161231   0.309571   0.359935   0.000216
    5             0.000480   0.153059   0.130609   0.494165   0.058129

               ----- POPULATIONS IN EACH AO -----
                             MULLIKEN      LOWDIN
              1  C  1  S      1.99641     1.98254
              2  C  1  S      0.62899     0.35252
              3  C  1  X      0.70259     0.63402
              4  C  1  Y      0.69690     0.63326
              5  C  1  Z      0.70088     0.63403
              6  C  1  S      0.67500     0.34952
              7  C  1  X      0.38799     0.50895
              8  C  1  Y      0.39954     0.52397
              9  C  1  Z      0.39316     0.51395
             10  C  1 XX      0.01911     0.15529
             11  C  1 YY      0.01488     0.14869
             12  C  1 ZZ      0.02226     0.15965
             13  C  1 XY      0.01328     0.01956
             14  C  1 XZ      0.01004     0.01479
             15  C  1 YZ      0.00228     0.00334
             16  H  2  S      0.54208     0.49851
             17  H  2  S      0.28152     0.33588
             18  H  3  S      0.51414     0.47922
             19  H  3  S      0.33105     0.36961
             20  H  4  S      0.52661     0.48681
             21  H  4  S      0.30484     0.35352
             22  H  5  S      0.52079     0.48171
             23  H  5  S      0.31565     0.36068

          ----- MULLIKEN ATOMIC OVERLAP POPULATIONS -----
          (OFF-DIAGONAL ELEMENTS NEED TO BE MULTIPLIED BY 2)

             1           2           3           4           5

    1    5.1036402
    2    0.3921514   0.5189121
    3    0.3874003  -0.0374196   0.5404733
    4    0.3907201  -0.0254960  -0.0216577   0.5143877
    5    0.3894112  -0.0245475  -0.0236109  -0.0265057   0.5216954

          TOTAL MULLIKEN AND LOWDIN ATOMIC POPULATIONS
       ATOM         MULL.POP.    CHARGE          LOW.POP.     CHARGE
    1 C             6.663323   -0.663323         6.634066   -0.634066
    2 H             0.823600    0.176400         0.834393    0.165607
    3 H             0.845185    0.154815         0.848829    0.151171
    4 H             0.831448    0.168552         0.840329    0.159671
    5 H             0.836443    0.163557         0.842383    0.157617

          -------------------------------
          BOND ORDER AND VALENCE ANALYSIS     BOND ORDER THRESHOLD=0.050
          -------------------------------

                   BOND                       BOND                       BOND
  ATOM PAIR DIST  ORDER      ATOM PAIR DIST  ORDER      ATOM PAIR DIST  ORDER
    1   2  1.032  0.956        1   3  1.109  0.968        1   4  1.074  0.962
    1   5  1.090  0.964

                       TOTAL       BONDED        FREE
      ATOM            VALENCE     VALENCE     VALENCE
    1 C                 3.850       3.850       0.000
    2 H                 0.923       0.923      -0.000
    3 H                 0.938       0.938       0.000
    4 H                 0.934       0.934       0.000
    5 H                 0.936       0.936      -0.000

          ---------------------
          ELECTROSTATIC MOMENTS
          ---------------------

 POINT   1           X           Y           Z (BOHR)    CHARGE
                 4.979373    5.242857    5.454180        0.00 (A.U.)
         DX          DY          DZ         /D/  (DEBYE)
    -0.049357   -0.051624   -0.015126    0.073006

          ----------------------------------
          DENSITY BASED MULTIPOLAR EXPANSION
          ----------------------------------
                 13804 GRID POINTS ARE USED
 TOTAL NUMBER OF ELECTRONS =                    10
 TOTAL CHARGE OBTAINED FROM GRID INTEGRAL =  9.90051
 A SCALING FACTOR OF 1.01005 IS APPLIED
 THE EXPANSION POINTS ARE PUNCHED OUT IN THE DAT FILE
  
 ...... END OF PROPERTY EVALUATION ......
 STEP CPU TIME =     0.33 TOTAL CPU TIME =        0.4 (    0.0 MIN)
 TOTAL WALL CLOCK TIME=        0.4 SECONDS, CPU UTILIZATION IS  88.64%

 RUNTYP=MAKEFP IS NOW GENERATING DISTRIBUTED MULTIPOLES FOR ELECTOSTATICS


 PROCESSING $STONE INPUT...
 THE NUMBER OF "BOUNDARY" CORE MOS IS  0
 THE NUMBER OF MOS WITH ZERO OCCUPATION NUMBER IS  0
 TOTAL ELECTRON CHARGE =    -10.0000000000

          ---------------------------------------------
          DISTRIBUTED MULTIPOLAR ANALYSIS (A. J. STONE)
          ---------------------------------------------

 NET CHARGES AT POINTS                    COORDINATES
 ---------------------                    -----------
    #   NAME        CHARGE          X           Y           Z
    1   ZC          6.00000      4.98888     5.23454     5.46131
    2   ZH          1.00000      3.72276     3.85504     4.91329
    3   ZH          1.00000      3.89284     6.99199     5.14005
    4   ZH          1.00000      5.51800     5.00777     7.40773
    5   ZH          1.00000      6.67073     5.21564     4.27078
    6   C          -5.64975      4.98888     5.23454     5.46131
    7   H          -0.74614      3.72276     3.85504     4.91329
    8   H          -0.76276      3.89284     6.99199     5.14005
    9   H          -0.75441      5.51800     5.00777     7.40773
   10   H          -0.76035      6.67073     5.21564     4.27078
   11   BO21       -0.38440      4.35582     4.54479     5.18730
   12   BO31       -0.28439      4.44086     6.11326     5.30068
   13   BO41       -0.34464      5.25344     5.12116     6.43452
   14   BO51       -0.31316      5.82980     5.22509     4.86604

 THE DISTRIBUTED MULTIPOLE ANALYSIS IS FOR THE -ELECTRONIC- PART ONLY
 OF THE FOLLOWING MOMENTS.  ALL QUANTITIES ARE IN ATOMIC UNITS


 FIRST MOMENTS AT POINTS
 -----------------------
 NAME               X             Y             Z
 C              0.00056      -0.01873       0.00534
 H             -0.02610      -0.01423      -0.01046
 H             -0.02612       0.02648      -0.00916
 H              0.01181      -0.00502       0.04015
 H              0.03582      -0.00001      -0.02466
 BO21           0.15639       0.20823       0.07036
 BO31           0.12300      -0.26869       0.02321
 BO41          -0.07786       0.00528      -0.25062
 BO51          -0.21314      -0.01743       0.17052

 SECOND MOMENTS AT POINTS
 ------------------------
 NAME           XX         YY         ZZ         XY         XZ         YZ
 C          -3.68468   -3.70360   -3.69359    0.01163    0.00839    0.00204
 H          -0.46051   -0.45141   -0.46147    0.00316    0.00069    0.00176
 H          -0.49724   -0.48821   -0.49700   -0.00036   -0.00032    0.00056
 H          -0.47170   -0.47175   -0.46833   -0.00003    0.00058   -0.00027
 H          -0.48039   -0.48207   -0.48090   -0.00016   -0.00142    0.00011
 BO21       -0.30595   -0.30200   -0.30309    0.00017   -0.00120    0.00007
 BO31       -0.16578   -0.17838   -0.16631    0.01762   -0.00060    0.00555
 BO41       -0.26732   -0.26587   -0.27494    0.01216    0.00538    0.00499
 BO51       -0.22743   -0.22950   -0.21054    0.01083    0.01118    0.00168

 THIRD MOMENTS AT POINTS
 -----------------------
 NAME           XXX        YYY        ZZZ        XXY        XXZ        XYY
                YYZ        XZZ        YZZ        XYZ
 C          -0.06995   -0.15227   -0.13016   -0.01666    0.10154    0.13819
             0.05281   -0.10575   -0.00236    0.01725
 H          -0.03729   -0.00926   -0.01546   -0.00275   -0.00414   -0.00934
            -0.00332   -0.01276   -0.00518    0.00136
 H          -0.04114    0.02932   -0.01506    0.01113   -0.00475   -0.01050
            -0.00430   -0.01402    0.01305   -0.00054
 H           0.01849   -0.00788    0.05368   -0.00257    0.02032    0.00618
             0.02080    0.00389   -0.00163    0.00026
 H           0.05134    0.00008   -0.03688    0.00014   -0.00909    0.01890
            -0.01297    0.01610    0.00008   -0.00008
 BO21        0.53075    0.74608    0.24033    0.24963    0.08092    0.17742
             0.08070    0.17662    0.24801    0.00080
 BO31        0.45142   -1.05059    0.09060   -0.35839    0.01057    0.13636
             0.01966    0.16056   -0.34952   -0.00631
 BO41       -0.30096   -0.00831   -0.91630   -0.00757   -0.30736   -0.10695
            -0.30769   -0.10040   -0.00090   -0.00331
 BO51       -0.79590   -0.08999    0.67462   -0.03491    0.21615   -0.27093
             0.21204   -0.25712   -0.03176   -0.00422
 STEP CPU TIME =     0.00 TOTAL CPU TIME =        0.4 (    0.0 MIN)
 TOTAL WALL CLOCK TIME=        0.5 SECONDS, CPU UTILIZATION IS  84.78%

 RUNTYP=MAKEFP IS NOW GENERATING LOCALIZED ORBITALS
               AND DISTRIBUTED POLARIZABILITY TENSORS
               AND DATA FOR DISPERSION.


          -------------------------
          BOYS ORBITAL LOCALIZATION
          -------------------------
          S.F.BOYS, IN "QUANTUM THEORY OF ATOMS, MOLECULES, AND SOLIDS"
          P.O.LOWDIN, ED. ACADEMIC PRESS, NY, 1966 PP253-266.

          THIS LOCALIZATION REQUIRES      1549 WORDS OF MEMORY.
          THIS LOCALIZATION HAS   5 ORBITALS, OF WHICH   1 ARE FROZEN.

          THE INITIAL LOCALIZATION SUM IS      5.490756 DEBYE**2
          BOYS ITERATION  10 ORBITAL CHANGE=    1.0608716131E-08
          LOCALIZATION CONVERGED IN  11 ITERATIONS
            THE FINAL LOCALIZATION SUM IS     49.456251 DEBYE**2

          THE BOYS LOCALIZED ORBITALS ARE

                      1          2          3          4          5

    1  C  1  S   -0.995595   0.099449  -0.098944  -0.097167   0.093441
    2  C  1  S   -0.028680  -0.186233   0.184204   0.179232  -0.169326
    3  C  1  X    0.000088   0.236650   0.098054   0.307267   0.177411
    4  C  1  Y    0.000038   0.288070  -0.036878  -0.002100  -0.327792
    5  C  1  Z    0.000034   0.104729   0.362803  -0.216422   0.046219
    6  C  1  S    0.013482  -0.169820   0.181950   0.183716  -0.182100
    7  C  1  X   -0.000274   0.112757   0.048292   0.161180   0.095555
    8  C  1  Y   -0.000069   0.145562  -0.019960  -0.003002  -0.180290
    9  C  1  Z   -0.000131   0.050419   0.187661  -0.115901   0.023669
   10  C  1 XX    0.002104  -0.008963  -0.007569   0.019817  -0.003468
   11  C  1 YY    0.002143  -0.013187  -0.009693  -0.010104  -0.021713
   12  C  1 ZZ    0.002096   0.007851   0.032301   0.005763   0.009024
   13  C  1 XY   -0.000085  -0.026050  -0.001383  -0.000810   0.023446
   14  C  1 XZ   -0.000034  -0.010322   0.012682  -0.025038  -0.004662
   15  C  1 YZ   -0.000025  -0.011188  -0.006420   0.000861   0.006778
   16  H  2  S   -0.000032  -0.325863  -0.017824  -0.017534   0.014774
   17  H  2  S   -0.002756  -0.217393  -0.048578  -0.047673   0.061781
   18  H  3  S   -0.000091   0.015490  -0.018011  -0.017601  -0.317419
   19  H  3  S   -0.002419   0.062186  -0.045644  -0.048133  -0.238852
   20  H  4  S   -0.000016   0.016019   0.321281  -0.017470   0.016273
   21  H  4  S   -0.002441   0.049009   0.221810  -0.050559   0.044752
   22  H  5  S   -0.000040   0.016146  -0.017835   0.319499   0.016161
   23  H  5  S   -0.002405   0.048295  -0.050822   0.227572   0.047525
 ...... END OF ORBITAL LOCALIZATION ......
 STEP CPU TIME =     0.00 TOTAL CPU TIME =        0.4 (    0.0 MIN)
 TOTAL WALL CLOCK TIME=        0.5 SECONDS, CPU UTILIZATION IS  84.78%
 NORMALIZED MULL. POP. FOR EACH LMO
   1   0.999 0.000 0.000 0.000 0.000
   2   0.586 0.442-0.012-0.009-0.008
   3   0.584-0.009-0.007 0.441-0.009
   4   0.583-0.009-0.008-0.009 0.443
   5   0.580-0.013 0.449-0.008-0.008

 ATOMS ARE ASSIGNED TO THE LMOS BASED ON THEIR MULLIKEN POPULATION.
 (MULLIKEN POP. THRESHOLD(VMTOL)=0.150 WAS USED)
 ORBITAL   1 BELONGS TO ATOM(S)   1
 ORBITAL   2 BELONGS TO ATOM(S)   1  2
 ORBITAL   3 BELONGS TO ATOM(S)   1  4
 ORBITAL   4 BELONGS TO ATOM(S)   1  5
 ORBITAL   5 BELONGS TO ATOM(S)   1  3
 
  LCD DIPOLES 
 
 LMO    XP        YP        ZP        MUX       MUY       MUZ     TOTAL
   1  4.98886   5.23453   5.46130   0.00008   0.00004   0.00003   0.00010
   2  4.14145   4.26583   5.09125   1.08976   1.41808   0.48825   1.85389
   3  5.34567   5.08619   6.78642  -0.46889   0.17778  -1.78890   1.85785
   4  6.12862   5.22152   4.65336  -1.51901   0.01815   1.08120   1.86460
   5  4.27390   6.44093   5.26049   0.84871  -1.66568   0.20430   1.88056

     ------------------------------
     CPHF RESPONSE SOLUTION OPTIONS
     ------------------------------
     POLAR  =       F     NWORD  =       0
     CPHF   =AO      

     --------------------------------------------
     PARTIAL TWO ELECTRON INTEGRAL TRANSFORMATION
     --------------------------------------------

 NUMBER OF CORE MOLECULAR ORBITALS     =    0
 NUMBER OF OCCUPIED MOLECULAR ORBITALS =    5
 TOTAL NUMBER OF MOLECULAR ORBITALS    =   23
 TOTAL NUMBER OF ATOMIC ORBITALS       =   23
 THRESHOLD FOR KEEPING TRANSFORMED 2E- INTEGRALS = 1.000E-09
 AO INTEGRALS WILL BE CALCULATED IN DIRECT MODE...

 PLAN A: REQUIREMENTS FOR FULLY IN-MEMORY TRANSFORMATION:
 # OF WORDS AVAILABLE =            500000000
 # OF WORDS NEEDED    =               139985

 CHOOSING IN MEMORY PARTIAL TRANSFORMATION...
 DIRECT TRANSFORMATION SKIPS AO INTEGRAL STORAGE ON DISK.
 TOTAL NUMBER OF TRANSFORMED 2E- INTEGRALS KEPT =         8130
 ... END OF INTEGRAL TRANSFORMATION ...
 STEP CPU TIME =     0.01 TOTAL CPU TIME =        0.4 (    0.0 MIN)
 TOTAL WALL CLOCK TIME=        0.5 SECONDS, CPU UTILIZATION IS  85.11%

     -------------------------------------------
     COUPLED-PERTURBED CLOSED SHELL HARTREE-FOCK
     -------------------------------------------
 THE CPHF HAS      90 INDEPENDENT ORBITAL ROTATIONS.
 CHOOSING OUT OF MEMORY CPHF ALGORITHM,
 -A- WILL BE FORMED IN    1 SLICES OF     90 COLUMNS.
         -B- WILL USE      1926 WORDS,
 -A- AND -U- WILL USE     40098 WORDS,
            THERE ARE 500000000 WORDS AVAILABLE.
 IN MEMORY FORMATION OF -A- WOULD REQUIRE         0 WORDS
        TIME FOR   -B-  =        0.000
        TIME FOR   -A-  =        0.000
 BICONJUGATE GRADIENT SOLVER     CONV. TOLERANCE=1.00E-05
 ITER   1 IMPROVED    3 RESPONSES, MAX RESIDUE=  2.3320350E-03
 ITER   2 IMPROVED    3 RESPONSES, MAX RESIDUE=  8.5934274E-04
 ITER   3 IMPROVED    3 RESPONSES, MAX RESIDUE=  4.3523096E-05
 ITER   4 IMPROVED    3 RESPONSES, MAX RESIDUE=  2.9792526E-06
        TIME FOR  -U-   =        0.000
 SOLVING FOR ALL   3 UNIQUE RESPONSES TOOK   12 ITERATIONS.
 CONJUGATE GRADIENT SOLVER MADE  13 READS OF THE EXTERNALLY STORED -A-

          -----------------------------------
           LOCALIZED ALPHA POLARIZABILITIES 
                 IN ANGSTROMS**3            
          -----------------------------------

           CORE ALPHA POLARIZABILITY TENSOR 
                      UX             UY             UZ
           UX     0.000538401   -0.000013320    0.000010834
           UY    -0.000011291    0.000527807   -0.000014670
           UZ     0.000006909   -0.000011802    0.000525076

           MEAN ALPHA POLARIZABILITY =     0.000530428


  LMO ALPHA POLARIZABILITY TENSOR FOR BOND BETWEEN ATOM  1 AND ATOM  2
                      UX             UY             UZ
           UX     0.463173006    0.301778877    0.120903591
           UY     0.318243345    0.525389205    0.135955190
           UZ     0.120809902    0.128840196    0.235203857

           MEAN ALPHA POLARIZABILITY =     0.407922022


  LMO ALPHA POLARIZABILITY TENSOR FOR BOND BETWEEN ATOM  1 AND ATOM  4
                      UX             UY             UZ
           UX     0.260031024   -0.024672567    0.173471338
           UY    -0.025421568    0.208964115   -0.085337398
           UZ     0.174642704   -0.081777286    0.858275155

           MEAN ALPHA POLARIZABILITY =     0.442423431


  LMO ALPHA POLARIZABILITY TENSOR FOR BOND BETWEEN ATOM  1 AND ATOM  5
                      UX             UY             UZ
           UX     0.709553464   -0.011803916   -0.352249062
           UY    -0.016811653    0.197673762    0.006806922
           UZ    -0.350630656    0.002799389    0.460369923

           MEAN ALPHA POLARIZABILITY =     0.455865716


  LMO ALPHA POLARIZABILITY TENSOR FOR BOND BETWEEN ATOM  1 AND ATOM  3
                      UX             UY             UZ
           UX     0.422977403   -0.367399140    0.067046511
           UY    -0.378170357    0.773870425   -0.112479869
           UZ     0.063912772   -0.104430715    0.214484607

           MEAN ALPHA POLARIZABILITY =     0.470444145


               -----------------------------------
                TOTAL ALPHA POLARIZABILITY TENSOR 
               -----------------------------------
                      UX             UY             UZ
           UX     1.856273298   -0.102110064    0.009183212
           UY    -0.102171524    1.706425313   -0.055069824
           UZ     0.008741631   -0.054580219    1.768858618

           MEAN ALPHA POLARIZABILITY =     1.777185743


          -----------------------------------------------
           LOCALIZED ALPHA POLARIZABILITY TENSORS FOR 
           LONE PAIRS AND BONDS PROJECTED ONTO THE Z-AXIS 
          -----------------------------------------------


  LMO ALPHA POLARIZABILITY TENSOR FOR BOND BETWEEN ATOM  1 AND ATOM  2
                      UX             UY             UZ
           UX     0.182745203   -0.000826598   -0.012993549
           UY    -0.000752943    0.183572795    0.005505172
           UZ     0.004140040    0.000199955    0.857448070

           MEAN ALPHA POLARIZABILITY =     0.407922022


  LMO ALPHA POLARIZABILITY TENSOR FOR BOND BETWEEN ATOM  1 AND ATOM  4
                      UX             UY             UZ
           UX     0.198750759    0.003672414    0.009450230
           UY     0.003331736    0.212619167   -0.002103327
           UZ     0.005657430   -0.001777586    0.915900369

           MEAN ALPHA POLARIZABILITY =     0.442423431


  LMO ALPHA POLARIZABILITY TENSOR FOR BOND BETWEEN ATOM  1 AND ATOM  5
                      UX             UY             UZ
           UX     0.197416895    0.004062910    0.010671130
           UY     0.004425735    0.212146662    0.001616565
           UZ     0.004279050   -0.000046764    0.958033593

           MEAN ALPHA POLARIZABILITY =     0.455865716


  LMO ALPHA POLARIZABILITY TENSOR FOR BOND BETWEEN ATOM  1 AND ATOM  3
                      UX             UY             UZ
           UX     0.186467144   -0.002763882   -0.000645614
           UY    -0.002833283    0.194809146    0.004066636
           UZ    -0.011534861   -0.004421463    1.030056145

           MEAN ALPHA POLARIZABILITY =     0.470444145
 .... DONE WITH STATIC POLARIZABILITY ....
 STEP CPU TIME =     0.00 TOTAL CPU TIME =        0.4 (    0.0 MIN)
 TOTAL WALL CLOCK TIME=        0.5 SECONDS, CPU UTILIZATION IS  81.63%
 USING   GMRES    SOLVER FOR LINEAR SYSTEM OF SIZE        90

 A TOTAL OF  12 IMAGINARY FREQUENCY POLARIZABILITIES ARE TO BE FOUND
 ALLOCATING MEMORY FOR GMRES SOLVER
 CALCULATING H2*H1 DIAGONAL
 WIDTH=                    90 NROT=                    90

 COMPUTING DYNAMIC POLARIZABILTY FOR IMAGINARY FREQUENCY   0.0027916I (A.U.)
 GMRES CONVERGED IN                     14 ITERATIONS
 GMRES CONVERGED IN                     14 ITERATIONS
 GMRES CONVERGED IN                     14 ITERATIONS

          -----------------------------------
           LOCALIZED ALPHA POLARIZABILITIES 
                 IN ANGSTROMS**3            
          -----------------------------------

           CORE ALPHA POLARIZABILITY TENSOR 
                      UX             UY             UZ
           UX     0.000513456   -0.000009901   -0.000007111
           UY    -0.000005884    0.000508711   -0.000002869
           UZ    -0.000006359   -0.000004478    0.000525974

           MEAN ALPHA POLARIZABILITY =     0.000516047


  LMO ALPHA POLARIZABILITY TENSOR FOR BOND BETWEEN ATOM  1 AND ATOM  2
                      UX             UY             UZ
           UX     0.463164995    0.301774796    0.120644151
           UY     0.318109926    0.525155478    0.136072232
           UZ     0.120677041    0.128951155    0.235182647

           MEAN ALPHA POLARIZABILITY =     0.407834374


  LMO ALPHA POLARIZABILITY TENSOR FOR BOND BETWEEN ATOM  1 AND ATOM  4
                      UX             UY             UZ
           UX     0.260014989   -0.024571309    0.173202014
           UY    -0.025346226    0.208947856   -0.085136487
           UZ     0.174439510   -0.081666314    0.858475110

           MEAN ALPHA POLARIZABILITY =     0.442479318


  LMO ALPHA POLARIZABILITY TENSOR FOR BOND BETWEEN ATOM  1 AND ATOM  5
                      UX             UY             UZ
           UX     0.709340806   -0.011681806   -0.352461140
           UY    -0.016703557    0.197671322    0.006985772
           UZ    -0.350792747    0.002918765    0.460369931

           MEAN ALPHA POLARIZABILITY =     0.455794020


  LMO ALPHA POLARIZABILITY TENSOR FOR BOND BETWEEN ATOM  1 AND ATOM  3
                      UX             UY             UZ
           UX     0.423020675   -0.367406597    0.066770313
           UY    -0.377949076    0.773768668   -0.112272950
           UZ     0.063830781   -0.104553431    0.214555548

           MEAN ALPHA POLARIZABILITY =     0.470448297


               -----------------------------------
                TOTAL ALPHA POLARIZABILITY TENSOR 
               -----------------------------------
                      UX             UY             UZ
           UX     1.856054921   -0.101894817    0.008148227
           UY    -0.101894817    1.706052034   -0.054354302
           UZ     0.008148227   -0.054354302    1.769109211

           MEAN ALPHA POLARIZABILITY =     1.777072055

 COMPUTING DYNAMIC POLARIZABILTY FOR IMAGINARY FREQUENCY   0.0151066I (A.U.)
 GMRES CONVERGED IN                      9 ITERATIONS
 GMRES CONVERGED IN                      9 ITERATIONS
 GMRES CONVERGED IN                      9 ITERATIONS

          -----------------------------------
           LOCALIZED ALPHA POLARIZABILITIES 
                 IN ANGSTROMS**3            
          -----------------------------------

           CORE ALPHA POLARIZABILITY TENSOR 
                      UX             UY             UZ
           UX     0.000513364   -0.000009887   -0.000007097
           UY    -0.000005876    0.000508596   -0.000002869
           UZ    -0.000006347   -0.000004475    0.000525861

           MEAN ALPHA POLARIZABILITY =     0.000515940


  LMO ALPHA POLARIZABILITY TENSOR FOR BOND BETWEEN ATOM  1 AND ATOM  2
                      UX             UY             UZ
           UX     0.462887440    0.301563409    0.120555964
           UY     0.317869320    0.524813337    0.135968283
           UZ     0.120588363    0.128859558    0.235076208

           MEAN ALPHA POLARIZABILITY =     0.407592328


  LMO ALPHA POLARIZABILITY TENSOR FOR BOND BETWEEN ATOM  1 AND ATOM  4
                      UX             UY             UZ
           UX     0.259891455   -0.024550189    0.173069987
           UY    -0.025323771    0.208858570   -0.085065336
           UZ     0.174303416   -0.081600556    0.857881503

           MEAN ALPHA POLARIZABILITY =     0.442210509


  LMO ALPHA POLARIZABILITY TENSOR FOR BOND BETWEEN ATOM  1 AND ATOM  5
                      UX             UY             UZ
           UX     0.708853704   -0.011669091   -0.352177145
           UY    -0.016682167    0.197588548    0.006976111
           UZ    -0.350509675    0.002916292    0.460083716

           MEAN ALPHA POLARIZABILITY =     0.455508656


  LMO ALPHA POLARIZABILITY TENSOR FOR BOND BETWEEN ATOM  1 AND ATOM  3
                      UX             UY             UZ
           UX     0.422747244   -0.367107846    0.066714000
           UY    -0.377631110    0.773200055   -0.112178061
           UZ     0.063779952   -0.104472691    0.214461397

           MEAN ALPHA POLARIZABILITY =     0.470136232


               -----------------------------------
                TOTAL ALPHA POLARIZABILITY TENSOR 
               -----------------------------------
                      UX             UY             UZ
           UX     1.854893206   -0.101773604    0.008155709
           UY    -0.101773604    1.704969107   -0.054301872
           UZ     0.008155709   -0.054301872    1.768028685

           MEAN ALPHA POLARIZABILITY =     1.775963666

 COMPUTING DYNAMIC POLARIZABILTY FOR IMAGINARY FREQUENCY   0.0390017I (A.U.)
 GMRES CONVERGED IN                     10 ITERATIONS
 GMRES CONVERGED IN                     10 ITERATIONS
 GMRES CONVERGED IN                     10 ITERATIONS

          -----------------------------------
           LOCALIZED ALPHA POLARIZABILITIES 
                 IN ANGSTROMS**3            
          -----------------------------------

           CORE ALPHA POLARIZABILITY TENSOR 
                      UX             UY             UZ
           UX     0.000512829   -0.000009804   -0.000007015
           UY    -0.000005830    0.000507925   -0.000002870
           UZ    -0.000006272   -0.000004462    0.000525207

           MEAN ALPHA POLARIZABILITY =     0.000515320


  LMO ALPHA POLARIZABILITY TENSOR FOR BOND BETWEEN ATOM  1 AND ATOM  2
                      UX             UY             UZ
           UX     0.461266797    0.300329243    0.120041164
           UY     0.316465262    0.522816608    0.135361712
           UZ     0.120070715    0.128324820    0.234454385

           MEAN ALPHA POLARIZABILITY =     0.406179264


  LMO ALPHA POLARIZABILITY TENSOR FOR BOND BETWEEN ATOM  1 AND ATOM  4
                      UX             UY             UZ
           UX     0.259169853   -0.024426974    0.172299350
           UY    -0.025192811    0.208336940   -0.084650328
           UZ     0.173509207   -0.081216911    0.854416947

           MEAN ALPHA POLARIZABILITY =     0.440641247


  LMO ALPHA POLARIZABILITY TENSOR FOR BOND BETWEEN ATOM  1 AND ATOM  5
                      UX             UY             UZ
           UX     0.706010858   -0.011595029   -0.350520139
           UY    -0.016557675    0.197104981    0.006919921
           UZ    -0.348858118    0.002901893    0.458413076

           MEAN ALPHA POLARIZABILITY =     0.453842971


  LMO ALPHA POLARIZABILITY TENSOR FOR BOND BETWEEN ATOM  1 AND ATOM  3
                      UX             UY             UZ
           UX     0.421151511   -0.365364908    0.066385482
           UY    -0.375776419    0.769882677   -0.111624555
           UZ     0.063483309   -0.104001460    0.213911412

           MEAN ALPHA POLARIZABILITY =     0.468315200


               -----------------------------------
                TOTAL ALPHA POLARIZABILITY TENSOR 
               -----------------------------------
                      UX             UY             UZ
           UX     1.848111848   -0.101067473    0.008198842
           UY    -0.101067473    1.698649132   -0.053996120
           UZ     0.008198842   -0.053996120    1.761721027

           MEAN ALPHA POLARIZABILITY =     1.769494002

 COMPUTING DYNAMIC POLARIZABILTY FOR IMAGINARY FREQUENCY   0.0779961I (A.U.)
 GMRES CONVERGED IN                     11 ITERATIONS
 GMRES CONVERGED IN                     11 ITERATIONS
 GMRES CONVERGED IN                     11 ITERATIONS

          -----------------------------------
           LOCALIZED ALPHA POLARIZABILITIES 
                 IN ANGSTROMS**3            
          -----------------------------------

           CORE ALPHA POLARIZABILITY TENSOR 
                      UX             UY             UZ
           UX     0.000510995   -0.000009524   -0.000006735
           UY    -0.000005674    0.000505633   -0.000002874
           UZ    -0.000006017   -0.000004415    0.000522962

           MEAN ALPHA POLARIZABILITY =     0.000513196


  LMO ALPHA POLARIZABILITY TENSOR FOR BOND BETWEEN ATOM  1 AND ATOM  2
                      UX             UY             UZ
           UX     0.455647805    0.296051833    0.118257921
           UY     0.311608167    0.515907127    0.133263720
           UZ     0.118277921    0.126472133    0.232294146

           MEAN ALPHA POLARIZABILITY =     0.401283026


  LMO ALPHA POLARIZABILITY TENSOR FOR BOND BETWEEN ATOM  1 AND ATOM  4
                      UX             UY             UZ
           UX     0.256664072   -0.024001171    0.169631007
           UY    -0.024740737    0.206524475   -0.083217233
           UZ     0.170761394   -0.079890920    0.842424712

           MEAN ALPHA POLARIZABILITY =     0.435204420


  LMO ALPHA POLARIZABILITY TENSOR FOR BOND BETWEEN ATOM  1 AND ATOM  5
                      UX             UY             UZ
           UX     0.696171926   -0.011340573   -0.344791397
           UY    -0.016131355    0.195424938    0.006728033
           UZ    -0.343148991    0.002852515    0.452628149

           MEAN ALPHA POLARIZABILITY =     0.448075004


  LMO ALPHA POLARIZABILITY TENSOR FOR BOND BETWEEN ATOM  1 AND ATOM  3
                      UX             UY             UZ
           UX     0.415629773   -0.359341239    0.065250276
           UY    -0.369371075    0.758416918   -0.109712750
           UZ     0.062456764   -0.102370416    0.212001361

           MEAN ALPHA POLARIZABILITY =     0.462016017


               -----------------------------------
                TOTAL ALPHA POLARIZABILITY TENSOR 
               -----------------------------------
                      UX             UY             UZ
           UX     1.824624570   -0.098640674    0.008341071
           UY    -0.098640674    1.676779091   -0.052941104
           UZ     0.008341071   -0.052941104    1.739871329

           MEAN ALPHA POLARIZABILITY =     1.747091663

 COMPUTING DYNAMIC POLARIZABILTY FOR IMAGINARY FREQUENCY   0.1386505I (A.U.)
 GMRES CONVERGED IN                     11 ITERATIONS
 GMRES CONVERGED IN                     11 ITERATIONS
 GMRES CONVERGED IN                     11 ITERATIONS

          -----------------------------------
           LOCALIZED ALPHA POLARIZABILITIES 
                 IN ANGSTROMS**3            
          -----------------------------------

           CORE ALPHA POLARIZABILITY TENSOR 
                      UX             UY             UZ
           UX     0.000506151   -0.000008789   -0.000005997
           UY    -0.000005263    0.000499614   -0.000002878
           UZ    -0.000005344   -0.000004289    0.000517020

           MEAN ALPHA POLARIZABILITY =     0.000507595


  LMO ALPHA POLARIZABILITY TENSOR FOR BOND BETWEEN ATOM  1 AND ATOM  2
                      UX             UY             UZ
           UX     0.440283272    0.284369215    0.113395202
           UY     0.298412810    0.497118004    0.127566750
           UZ     0.113391484    0.121416798    0.226352338

           MEAN ALPHA POLARIZABILITY =     0.387917871


  LMO ALPHA POLARIZABILITY TENSOR FOR BOND BETWEEN ATOM  1 AND ATOM  4
                      UX             UY             UZ
           UX     0.249780655   -0.022848106    0.162363739
           UY    -0.023520300    0.201536496   -0.079344036
           UZ     0.163294036   -0.076297826    0.809789381

           MEAN ALPHA POLARIZABILITY =     0.420368844


  LMO ALPHA POLARIZABILITY TENSOR FOR BOND BETWEEN ATOM  1 AND ATOM  5
                      UX             UY             UZ
           UX     0.669406774   -0.010662969   -0.329255985
           UY    -0.015006840    0.190802674    0.006225846
           UZ    -0.327672517    0.002721565    0.436867007

           MEAN ALPHA POLARIZABILITY =     0.432358818


  LMO ALPHA POLARIZABILITY TENSOR FOR BOND BETWEEN ATOM  1 AND ATOM  3
                      UX             UY             UZ
           UX     0.400615902   -0.343022503    0.062176298
           UY    -0.352053559    0.727346921   -0.104542335
           UZ     0.059665596   -0.097932902    0.206752389

           MEAN ALPHA POLARIZABILITY =     0.444905071


               -----------------------------------
                TOTAL ALPHA POLARIZABILITY TENSOR 
               -----------------------------------
                      UX             UY             UZ
           UX     1.760592753   -0.092173151    0.008673256
           UY    -0.092173151    1.617303708   -0.050096654
           UZ     0.008673256   -0.050096654    1.680278135

           MEAN ALPHA POLARIZABILITY =     1.686058199

 COMPUTING DYNAMIC POLARIZABILTY FOR IMAGINARY FREQUENCY   0.2332227I (A.U.)
 GMRES CONVERGED IN                     11 ITERATIONS
 GMRES CONVERGED IN                     11 ITERATIONS
 GMRES CONVERGED IN                     11 ITERATIONS

          -----------------------------------
           LOCALIZED ALPHA POLARIZABILITIES 
                 IN ANGSTROMS**3            
          -----------------------------------

           CORE ALPHA POLARIZABILITY TENSOR 
                      UX             UY             UZ
           UX     0.000495796   -0.000007245   -0.000004421
           UY    -0.000004395    0.000486942   -0.000002860
           UZ    -0.000003900   -0.000003996    0.000504254

           MEAN ALPHA POLARIZABILITY =     0.000495664


  LMO ALPHA POLARIZABILITY TENSOR FOR BOND BETWEEN ATOM  1 AND ATOM  2
                      UX             UY             UZ
           UX     0.404309000    0.257104386    0.102091896
           UY     0.267995767    0.453686764    0.114450276
           UZ     0.102044751    0.109644240    0.212227980

           MEAN ALPHA POLARIZABILITY =     0.356741248


  LMO ALPHA POLARIZABILITY TENSOR FOR BOND BETWEEN ATOM  1 AND ATOM  4
                      UX             UY             UZ
           UX     0.233469898   -0.020214927    0.145526974
           UY    -0.020752598    0.189658239   -0.070529189
           UZ     0.146077815   -0.068068926    0.734256627

           MEAN ALPHA POLARIZABILITY =     0.385794921


  LMO ALPHA POLARIZABILITY TENSOR FOR BOND BETWEEN ATOM  1 AND ATOM  5
                      UX             UY             UZ
           UX     0.607516074   -0.009176883   -0.293621245
           UY    -0.012597611    0.179801401    0.005169309
           UZ    -0.292200033    0.002434573    0.400267854

           MEAN ALPHA POLARIZABILITY =     0.395861776


  LMO ALPHA POLARIZABILITY TENSOR FOR BOND BETWEEN ATOM  1 AND ATOM  3
                      UX             UY             UZ
           UX     0.365926092   -0.305675926    0.055150865
           UY    -0.312611758    0.656163312   -0.092758708
           UZ     0.053225437   -0.087677062    0.194297701

           MEAN ALPHA POLARIZABILITY =     0.405462368


               -----------------------------------
                TOTAL ALPHA POLARIZABILITY TENSOR 
               -----------------------------------
                      UX             UY             UZ
           UX     1.611716859   -0.077970594    0.009144069
           UY    -0.077970594    1.479796657   -0.043671171
           UZ     0.009144069   -0.043671171    1.541554416

           MEAN ALPHA POLARIZABILITY =     1.544355978

 COMPUTING DYNAMIC POLARIZABILTY FOR IMAGINARY FREQUENCY   0.3858973I (A.U.)
 GMRES CONVERGED IN                     11 ITERATIONS
 GMRES CONVERGED IN                     11 ITERATIONS
 GMRES CONVERGED IN                     11 ITERATIONS

          -----------------------------------
           LOCALIZED ALPHA POLARIZABILITIES 
                 IN ANGSTROMS**3            
          -----------------------------------

           CORE ALPHA POLARIZABILITY TENSOR 
                      UX             UY             UZ
           UX     0.000479626   -0.000004839   -0.000001895
           UY    -0.000003034    0.000467759   -0.000002727
           UZ    -0.000001574   -0.000003442    0.000483980

           MEAN ALPHA POLARIZABILITY =     0.000477122


  LMO ALPHA POLARIZABILITY TENSOR FOR BOND BETWEEN ATOM  1 AND ATOM  2
                      UX             UY             UZ
           UX     0.333526067    0.203945615    0.080248651
           UY     0.210036500    0.370244014    0.089524695
           UZ     0.080153745    0.086782221    0.183435774

           MEAN ALPHA POLARIZABILITY =     0.295735285


  LMO ALPHA POLARIZABILITY TENSOR FOR BOND BETWEEN ATOM  1 AND ATOM  4
                      UX             UY             UZ
           UX     0.200444951   -0.015326809    0.113256263
           UY    -0.015675766    0.165304593   -0.054177131
           UZ     0.113348853   -0.052612473    0.589152622

           MEAN ALPHA POLARIZABILITY =     0.318300722


  LMO ALPHA POLARIZABILITY TENSOR FOR BOND BETWEEN ATOM  1 AND ATOM  5
                      UX             UY             UZ
           UX     0.488816713   -0.006632855   -0.226572899
           UY    -0.008672215    0.157256320    0.003500569
           UZ    -0.225522303    0.001920471    0.329295250

           MEAN ALPHA POLARIZABILITY =     0.325122761


  LMO ALPHA POLARIZABILITY TENSOR FOR BOND BETWEEN ATOM  1 AND ATOM  3
                      UX             UY             UZ
           UX     0.299379995   -0.235675317    0.042036461
           UY    -0.239379689    0.522113412   -0.070864194
           UZ     0.040987859   -0.068105564    0.168956969

           MEAN ALPHA POLARIZABILITY =     0.330150125


               -----------------------------------
                TOTAL ALPHA POLARIZABILITY TENSOR 
               -----------------------------------
                      UX             UY             UZ
           UX     1.322647351   -0.053694205    0.008966581
           UY    -0.053694205    1.215386098   -0.032018788
           UZ     0.008966581   -0.032018788    1.271324595

           MEAN ALPHA POLARIZABILITY =     1.269786015

 COMPUTING DYNAMIC POLARIZABILTY FOR IMAGINARY FREQUENCY   0.6491140I (A.U.)
 GMRES CONVERGED IN                     10 ITERATIONS
 GMRES CONVERGED IN                     10 ITERATIONS
 GMRES CONVERGED IN                     10 ITERATIONS

          -----------------------------------
           LOCALIZED ALPHA POLARIZABILITIES 
                 IN ANGSTROMS**3            
          -----------------------------------

           CORE ALPHA POLARIZABILITY TENSOR 
                      UX             UY             UZ
           UX     0.000467056   -0.000002509    0.000000605
           UY    -0.000001726    0.000453645   -0.000002382
           UZ     0.000000742   -0.000002683    0.000466902

           MEAN ALPHA POLARIZABILITY =     0.000462535


  LMO ALPHA POLARIZABILITY TENSOR FOR BOND BETWEEN ATOM  1 AND ATOM  2
                      UX             UY             UZ
           UX     0.227175150    0.126178153    0.048834003
           UY     0.127887552    0.248815549    0.054371093
           UZ     0.048728275    0.053528226    0.136817187

           MEAN ALPHA POLARIZABILITY =     0.204269295


  LMO ALPHA POLARIZABILITY TENSOR FOR BOND BETWEEN ATOM  1 AND ATOM  4
                      UX             UY             UZ
           UX     0.147593438   -0.008817597    0.067670732
           UY    -0.009001610    0.125242656   -0.031998195
           UZ     0.067531074   -0.031269015    0.380087794

           MEAN ALPHA POLARIZABILITY =     0.217641296


  LMO ALPHA POLARIZABILITY TENSOR FOR BOND BETWEEN ATOM  1 AND ATOM  5
                      UX             UY             UZ
           UX     0.318052363   -0.003632766   -0.134146502
           UY    -0.004425303    0.120090854    0.001731105
           UZ    -0.133624415    0.001173476    0.224352832

           MEAN ALPHA POLARIZABILITY =     0.220832016


  LMO ALPHA POLARIZABILITY TENSOR FOR BOND BETWEEN ATOM  1 AND ATOM  3
                      UX             UY             UZ
           UX     0.202839929   -0.139519582    0.024237335
           UY    -0.140253215    0.334573439   -0.041259883
           UZ     0.023960497   -0.040588266    0.127750512

           MEAN ALPHA POLARIZABILITY =     0.221721293


               -----------------------------------
                TOTAL ALPHA POLARIZABILITY TENSOR 
               -----------------------------------
                      UX             UY             UZ
           UX     0.896127937   -0.025794301    0.006596173
           UY    -0.025794301    0.829176143   -0.017158261
           UZ     0.006596173   -0.017158261    0.869475226

           MEAN ALPHA POLARIZABILITY =     0.864926435

 COMPUTING DYNAMIC POLARIZABILTY FOR IMAGINARY FREQUENCY   1.1539038I (A.U.)
 GMRES CONVERGED IN                      9 ITERATIONS
 GMRES CONVERGED IN                      9 ITERATIONS
 GMRES CONVERGED IN                      9 ITERATIONS

          -----------------------------------
           LOCALIZED ALPHA POLARIZABILITIES 
                 IN ANGSTROMS**3            
          -----------------------------------

           CORE ALPHA POLARIZABILITY TENSOR 
                      UX             UY             UZ
           UX     0.000473225   -0.000001424    0.000001639
           UY    -0.000001217    0.000460790   -0.000001984
           UZ     0.000001677   -0.000002053    0.000470798

           MEAN ALPHA POLARIZABILITY =     0.000468271


  LMO ALPHA POLARIZABILITY TENSOR FOR BOND BETWEEN ATOM  1 AND ATOM  2
                      UX             UY             UZ
           UX     0.117803931    0.052384577    0.019817426
           UY     0.052363903    0.127442735    0.022253406
           UZ     0.019757913    0.022190861    0.081648072

           MEAN ALPHA POLARIZABILITY =     0.108964912


  LMO ALPHA POLARIZABILITY TENSOR FOR BOND BETWEEN ATOM  1 AND ATOM  4
                      UX             UY             UZ
           UX     0.086143353   -0.003423264    0.026838573
           UY    -0.003500893    0.076362014   -0.012624383
           UZ     0.026764057   -0.012358303    0.179220081

           MEAN ALPHA POLARIZABILITY =     0.113908483


  LMO ALPHA POLARIZABILITY TENSOR FOR BOND BETWEEN ATOM  1 AND ATOM  5
                      UX             UY             UZ
           UX     0.153315883   -0.001398930   -0.052963248
           UY    -0.001603513    0.074238072    0.000519704
           UZ    -0.052834710    0.000394840    0.116863808

           MEAN ALPHA POLARIZABILITY =     0.114805921


  LMO ALPHA POLARIZABILITY TENSOR FOR BOND BETWEEN ATOM  1 AND ATOM  3
                      UX             UY             UZ
           UX     0.106190176   -0.054967046    0.009065520
           UY    -0.054664368    0.159112386   -0.015873210
           UZ     0.009070972   -0.015951813    0.077855913

           MEAN ALPHA POLARIZABILITY =     0.114386158


               -----------------------------------
                TOTAL ALPHA POLARIZABILITY TENSOR 
               -----------------------------------
                      UX             UY             UZ
           UX     0.463926568   -0.007406088    0.002759910
           UY    -0.007406088    0.437615996   -0.005726467
           UZ     0.002759910   -0.005726467    0.456058672

           MEAN ALPHA POLARIZABILITY =     0.452533745

 COMPUTING DYNAMIC POLARIZABILTY FOR IMAGINARY FREQUENCY   2.3075922I (A.U.)
 GMRES CONVERGED IN                      8 ITERATIONS
 GMRES CONVERGED IN                      8 ITERATIONS
 GMRES CONVERGED IN                      8 ITERATIONS

[...]


  LMO ALPHA POLARIZABILITY TENSOR FOR BOND BETWEEN ATOM  1 AND ATOM  4
                      UX             UY             UZ
           UX     0.007021413   -0.000094452    0.000654324
           UY    -0.000096967    0.006810134   -0.000283136
           UZ     0.000670044   -0.000281220    0.009360448

           MEAN ALPHA POLARIZABILITY =     0.007730665


  LMO ALPHA POLARIZABILITY TENSOR FOR BOND BETWEEN ATOM  1 AND ATOM  5
                      UX             UY             UZ
           UX     0.008667787   -0.000040640   -0.001291428
           UY    -0.000046514    0.006773380   -0.000000437
           UZ    -0.001306059   -0.000003995    0.007772126

           MEAN ALPHA POLARIZABILITY =     0.007737764


  LMO ALPHA POLARIZABILITY TENSOR FOR BOND BETWEEN ATOM  1 AND ATOM  3
                      UX             UY             UZ
           UX     0.007455482   -0.001245697    0.000168805
           UY    -0.001256655    0.008928067   -0.000344939
           UZ     0.000165933   -0.000335897    0.006856521

           MEAN ALPHA POLARIZABILITY =     0.007746690


               -----------------------------------
                TOTAL ALPHA POLARIZABILITY TENSOR 
               -----------------------------------
                      UX             UY             UZ
           UX     0.031455710   -0.000082578    0.000004283
           UY    -0.000082578    0.031295193   -0.000052686
           UZ     0.000004283   -0.000052686    0.031434689

           MEAN ALPHA POLARIZABILITY =     0.031395197

 COMPUTING DYNAMIC POLARIZABILTY FOR IMAGINARY FREQUENCY  32.2390801I (A.U.)
 GMRES CONVERGED IN                      5 ITERATIONS
 GMRES CONVERGED IN                      5 ITERATIONS
 GMRES CONVERGED IN                      5 ITERATIONS

          -----------------------------------
           LOCALIZED ALPHA POLARIZABILITIES 
                 IN ANGSTROMS**3            
          -----------------------------------

           CORE ALPHA POLARIZABILITY TENSOR 
                      UX             UY             UZ
           UX     0.000061822    0.000000021    0.000000146
           UY     0.000000021    0.000061169   -0.000000066
           UZ     0.000000146   -0.000000066    0.000061600

           MEAN ALPHA POLARIZABILITY =     0.000061530


  LMO ALPHA POLARIZABILITY TENSOR FOR BOND BETWEEN ATOM  1 AND ATOM  2
                      UX             UY             UZ
           UX     0.000283978    0.000037738    0.000013567
           UY     0.000038761    0.000300338    0.000017133
           UZ     0.000013666    0.000016772    0.000258922

           MEAN ALPHA POLARIZABILITY =     0.000281079


  LMO ALPHA POLARIZABILITY TENSOR FOR BOND BETWEEN ATOM  1 AND ATOM  4
                      UX             UY             UZ
           UX     0.000257644   -0.000002895    0.000019335
           UY    -0.000002958    0.000252298   -0.000008029
           UZ     0.000019950   -0.000008078    0.000326950

           MEAN ALPHA POLARIZABILITY =     0.000278964


  LMO ALPHA POLARIZABILITY TENSOR FOR BOND BETWEEN ATOM  1 AND ATOM  5
                      UX             UY             UZ
           UX     0.000306320   -0.000001246   -0.000038131
           UY    -0.000001414    0.000251279   -0.000000059
           UZ    -0.000038699   -0.000000154    0.000279527

           MEAN ALPHA POLARIZABILITY =     0.000279042


  LMO ALPHA POLARIZABILITY TENSOR FOR BOND BETWEEN ATOM  1 AND ATOM  3
                      UX             UY             UZ
           UX     0.000270229   -0.000035781    0.000004576
           UY    -0.000036573    0.000315390   -0.000009866
           UZ     0.000004429   -0.000009361    0.000253172

           MEAN ALPHA POLARIZABILITY =     0.000279597


               -----------------------------------
                TOTAL ALPHA POLARIZABILITY TENSOR 
               -----------------------------------
                      UX             UY             UZ
           UX     0.001179993   -0.000002164   -0.000000507
           UY    -0.000002164    0.001180474   -0.000000888
           UZ    -0.000000507   -0.000000888    0.001180171

           MEAN ALPHA POLARIZABILITY =     0.001180213

 ...... DONE WITH CPHF CONTRIBUTIONS ......
 STEP CPU TIME =     0.03 TOTAL CPU TIME =        0.4 (    0.0 MIN)
 TOTAL WALL CLOCK TIME=        0.6 SECONDS, CPU UTILIZATION IS  70.49%

 RUNTYP=MAKEFP IS NOW GENERATING EXCHANGE REPULSION DATA
 RUNTYP=MAKEFP HAS JUST FINISHED DOING THAT.

 RUNTYP=MAKEFP IS NOW GENERATING SCREENING PARAMETERS.


     ---------------------------------------
     EFFECTIVE POTENTIAL SCREENING PARAMETER
              OPTIMIZATION PROGRAM
     ---------------------------------------
     AUTHORS: WALT STEVENS, MARK FREITAG, LYUDMILA SLIPCHENKO

 THE $DAMP INPUT DATA FOR THIS RUN IS:
 ISCCHG =     0
 THRSH  = 500.0
 MAXIT  =    30
 NMAIN  =     5
 INITIAL FIT WILL USE EXP. CH-CH  FORM WITH    FIXED LINEAR COEFICIENTS
  SECOND FIT WILL USE    GAUSSIAN FORM WITH    FIXED LINEAR COEFICIENTS

 THE CLASSICAL MULTIPOLE EXPANSION TO BE SCREENED IS

 CENTERS OF THE DISTRIBUTED MULTIPOLE EXPANSION, X,Y,Z
     C          4.98888   5.23454   5.46131
     H          3.72276   3.85504   4.91329
     H          3.89284   6.99199   5.14005
     H          5.51800   5.00777   7.40773
     H          6.67073   5.21564   4.27078
     BO21       4.35582   4.54479   5.18730
     BO31       4.44086   6.11326   5.30068
     BO41       5.25344   5.12116   6.43452
     BO51       5.82980   5.22509   4.86604

 CHARGES             Q
     C         -5.64975
     H         -0.74614
     H         -0.76276
     H         -0.75441
     H         -0.76035
     BO21      -0.38440
     BO31      -0.28439
     BO41      -0.34464
     BO51      -0.31316

 DIPOLES             X         Y         Z
     C          0.00056  -0.01873   0.00534
     H         -0.02610  -0.01423  -0.01046
     H         -0.02612   0.02648  -0.00916
     H          0.01181  -0.00502   0.04015
     H          0.03582  -0.00001  -0.02466
     BO21       0.15639   0.20823   0.07036
     BO31       0.12300  -0.26869   0.02321
     BO41      -0.07786   0.00528  -0.25062
     BO51      -0.21314  -0.01743   0.17052

 QUADRUPOLES        XX        YY        ZZ        XY        XZ        YZ
     C         -3.68468  -3.70360  -3.69359   0.01163   0.00839   0.00204
     H         -0.46051  -0.45141  -0.46147   0.00316   0.00069   0.00176
     H         -0.49724  -0.48821  -0.49700  -0.00036  -0.00032   0.00056
     H         -0.47170  -0.47175  -0.46833  -0.00003   0.00058  -0.00027
     H         -0.48039  -0.48207  -0.48090  -0.00016  -0.00142   0.00011
     BO21      -0.30595  -0.30200  -0.30309   0.00017  -0.00120   0.00007
     BO31      -0.16578  -0.17838  -0.16631   0.01762  -0.00060   0.00555
     BO41      -0.26732  -0.26587  -0.27494   0.01216   0.00538   0.00499
     BO51      -0.22743  -0.22950  -0.21054   0.01083   0.01118   0.00168

 OCTUPOLES
     C         -0.06995  -0.15227  -0.13016  -0.01666   0.10154
                0.13819   0.05281  -0.10575  -0.00236   0.01725
     H         -0.03729  -0.00926  -0.01546  -0.00275  -0.00414
               -0.00934  -0.00332  -0.01276  -0.00518   0.00136
     H         -0.04114   0.02932  -0.01506   0.01113  -0.00475
               -0.01050  -0.00430  -0.01402   0.01305  -0.00054
     H          0.01849  -0.00788   0.05368  -0.00257   0.02032
                0.00618   0.02080   0.00389  -0.00163   0.00026
     H          0.05134   0.00008  -0.03688   0.00014  -0.00909
                0.01890  -0.01297   0.01610   0.00008  -0.00008
     BO21       0.53075   0.74608   0.24033   0.24963   0.08092
                0.17742   0.08070   0.17662   0.24801   0.00080
     BO31       0.45142  -1.05059   0.09060  -0.35839   0.01057
                0.13636   0.01966   0.16056  -0.34952  -0.00631
     BO41      -0.30096  -0.00831  -0.91630  -0.00757  -0.30736
               -0.10695  -0.30769  -0.10040  -0.00090  -0.00331
     BO51      -0.79590  -0.08999   0.67462  -0.03491   0.21615
               -0.27093   0.21204  -0.25712  -0.03176  -0.00422


                         *****   WARNING   *****
 NO $DAMPGS CHARGE PENETRATION SCREENING INPUT WAS FOUND, CONTINUING...
   THIS INPUT GROUP LETS YOU ASSIGN EXACTLY EQUAL SCREENING EXPONENTS
   TO ANY SYMMETRY EQUIVALENT ATOMS AND BOND CENTERS, AND IT IS USUALLY
   A VERY GOOD IDEA TO ENTER THIS DATA.


 NUMBER OF OPTIMIZED PARAMETERS IS   9

 INITIAL VALUES OF SCREENING PARAMETERS ARE:
 NAME        COEF       EXP
 C          1.00000   2.00000
 H          1.00000   2.00000
 H          1.00000   2.00000
 H          1.00000   2.00000
 H          1.00000   2.00000
 BO21       1.00000   4.00000
 BO31       1.00000   4.00000
 BO41       1.00000   4.00000
 BO51       1.00000   4.00000

 QUANTUM ELECTROSTATIC POTENTIAL GRID IS GENERATED BY $PDC PTSEL=GEODESIC
 POINT SELECTION IS USING VDWSCL=  0.700
  MEMORY FOR PDCPTS:                 307920
 GAVEZZOTTI RADII USED FOR CHARGE FITTING
          EFP CENTER      VDW RADIUS
          C               2.83 BOHR
          H               2.27 BOHR
          H               2.27 BOHR
          H               2.27 BOHR
          H               2.27 BOHR
 RADIUS FOR BOND MID-POINT BETWEEN ATOMS  2 AND  1
          BO21            2.55 BOHR
 RADIUS FOR BOND MID-POINT BETWEEN ATOMS  3 AND  1
          BO31            2.55 BOHR
 RADIUS FOR BOND MID-POINT BETWEEN ATOMS  4 AND  1
          BO41            2.55 BOHR
 RADIUS FOR BOND MID-POINT BETWEEN ATOMS  5 AND  1
          BO51            2.55 BOHR
 {3,5+}NH,NK TEMPLATE USED, NH= 3 NK= 0
 NUMBER OF POINTS SELECTED FOR FITTING =    4071

  TO SIMULATE EVEN POINT DENSITY IN GEODES GRID
  TOTAL NUMBER OF POINTS WAS ARTIFICIALLY INCREASED
  TO      28009
 DAMPING COMPUTATION NEEDS       45042 WORDS
 PLUS       225552 WORDS

 ----- THE ELECTROSTATIC POTENTIAL GRID CONTAINS     4071 POINTS -----
 ----- THE QUANTUM POTENTIAL HAS BEEN GENERATED ON THE GRID -----
 ----- THE UNSCREENED CLASSICAL POTENTIAL GRID HAS BEEN GENERATED -----
 ELECTROSTATIC POTENTIAL CPU TIME: QUANTUM=     0.1, CLASSICAL=    0.00

 *** SINGLE EXPONENTIAL USED AS DAMPING FUNCTION ***
  CHARGE-CHARGE SCREENING WILL BE PERFORMED 

 FITTING SCREENED MULTIPOLE CLASSICAL POTENTIAL TO THE QUANTUM POTENTIAL...
  INITIAL ALPHAS ARE    2.000   2.000   2.000   2.000   2.000   4.000   4.000   4.000   4.000
 INITIAL CHI^2 =       2.18744007
 POWELL PROCEDURE, ITERATION      1 CHI^2 =       0.77254831
 POWELL PROCEDURE, ITERATION      2 CHI^2 =       0.65570589
 POWELL PROCEDURE, ITERATION      3 CHI^2 =       0.78068746
 POWELL PROCEDURE, ITERATION      4 CHI^2 =       0.71260673
 POWELL PROCEDURE, ITERATION      5 CHI^2 =       0.62080312
 POWELL PROCEDURE, ITERATION      6 CHI^2 =       0.59259676
 POWELL PROCEDURE, ITERATION      7 CHI^2 =       0.57524863
 POWELL PROCEDURE, ITERATION      8 CHI^2 =       0.56712156
 POWELL PROCEDURE, ITERATION      9 CHI^2 =       0.54926961
 POWELL PROCEDURE, ITERATION     10 CHI^2 =       0.54155850
 POWELL PROCEDURE, ITERATION     11 CHI^2 =       0.54042872
 POWELL PROCEDURE, ITERATION     12 CHI^2 =       0.53835818
 POWELL PROCEDURE, ITERATION     13 CHI^2 =       0.53795054
 POWELL PROCEDURE, ITERATION     14 CHI^2 =       0.53571807
 POWELL PROCEDURE, ITERATION     15 CHI^2 =       0.53523357
 POWELL PROCEDURE, ITERATION     16 CHI^2 =       0.53289571
 POWELL PROCEDURE, ITERATION     17 CHI^2 =       0.53204881
 POWELL PROCEDURE, ITERATION     18 CHI^2 =       0.53033953
 POWELL PROCEDURE, ITERATION     19 CHI^2 =       0.53009278
 POWELL PROCEDURE, ITERATION     20 CHI^2 =       0.52975301
 POWELL PROCEDURE, ITERATION     21 CHI^2 =       0.52965862
 POWELL PROCEDURE, ITERATION     22 CHI^2 =       0.52953586
 POWELL PROCEDURE, ITERATION     23 CHI^2 =       0.52952960
 POWELL PROCEDURE, ITERATION     24 CHI^2 =       0.52950266
 POWELL PROCEDURE, ITERATION     25 CHI^2 =       0.52946508
 POWELL PROCEDURE, ITERATION     26 CHI^2 =       0.52935810
 POWELL PROCEDURE, ITERATION     27 CHI^2 =       0.52903943
 POWELL PROCEDURE, ITERATION     28 CHI^2 =       0.52532703
 POWELL PROCEDURE, ITERATION     29 CHI^2 =       0.52441235
 POWELL EXCEEDING MAXIMUM ITERATIONS
 POWELL PROCEDURE REQUIRED     4.7 SECONDS

               ----- OPTIMIZED SCREENING PARAMETERS ----- 
 NAME          X        Y        Z               COEF                 ALPHA
 C          4.9889   5.2345   5.4613         1.0000000000         1.8554898718
 H          3.7228   3.8550   4.9133         1.0000000000         1.7580238420
 H          3.8928   6.9920   5.1401         1.0000000000         1.6985031604
 H          5.5180   5.0078   7.4077         1.0000000000         1.7684399061
 H          6.6707   5.2156   4.2708         1.0000000000         1.7722954254
 BO21       4.3558   4.5448   5.1873         1.0000000000         2.1543917193
 BO31       4.4409   6.1133   5.3007         1.0000000000         1.6849925014
 BO41       5.2534   5.1212   6.4345         1.0000000000         1.6879271374
 BO51       5.8298   5.2251   4.8660         1.0000000000         1.5491434247

 STATISTICS FOR UNSCREENED MULTIPOLES
 ------------------------------------
 AVERAGE UNSIGNED ERROR        (      4071 PTS) = 5.076284E+00
 RMS DEVIATION                 (      4071 PTS) = 1.170989E+01
 RMS DEVIATION (ERR > THRSH/8) (         3 PTS) = 8.056840E+01
 RMS DEVIATION (ERR > THRSH/4) (         0 PTS) = 0.000000E+00
 RMS DEVIATION (ERR > THRSH/2) (         0 PTS) = 0.000000E+00
 RMS DEVIATION (ERR > THRSH)   (         0 PTS) = 0.000000E+00
 
 EFFECTIVE AV. UNSIGNED ERROR  (     28009 PTS) = 7.378183E-01
 EFFECTIVE RMS DEVIATION       (     28009 PTS) = 4.463845E+00


 STATISTICS FOR SCREENED MULTIPOLES
 ----------------------------------
 AVERAGE UNSIGNED ERROR        (      4071 PTS) = 5.620570E-01
 RMS DEVIATION                 (      4071 PTS) = 1.208642E+00
 RMS DEVIATION (ERR > THRSH/8) (         0 PTS) = 0.000000E+00
 RMS DEVIATION (ERR > THRSH/4) (         0 PTS) = 0.000000E+00
 RMS DEVIATION (ERR > THRSH/2) (         0 PTS) = 0.000000E+00
 RMS DEVIATION (ERR > THRSH)   (         0 PTS) = 0.000000E+00
 
 EFFECTIVE AV. UNSIGNED ERROR  (     28009 PTS) = 8.169281E-02
 EFFECTIVE RMS DEVIATION       (     28009 PTS) = 4.607377E-01


 GRID POINTS WITH ERRORS (QUANTUM - EITHER FIT) GREATER THAN  500.00 KCAL/MOL
   POINT  CENTER  DISTANCE   X     Y       Z    QUANTUM      DIFF      DIFF   
                  FROM ORIGIN                              SCREEN  NOSCREEN

 ..... DONE WITH CHARGE PENETRATION SCREENING .....
 STEP CPU TIME =     4.84 TOTAL CPU TIME =        5.3 (    0.1 MIN)
 TOTAL WALL CLOCK TIME=        5.5 SECONDS, CPU UTILIZATION IS  96.34%

 *** SINGLE GAUSSIAN USED AS DAMPING FUNCTION ***

 FITTING SCREENED MULTIPOLE CLASSICAL POTENTIAL TO THE QUANTUM POTENTIAL...
  INITIAL ALPHAS ARE    1.084   1.084   1.084   1.084   1.084   4.335   4.335   4.335   4.335
 INITIAL CHI^2 =       3.07641728
 POWELL PROCEDURE, ITERATION      1 CHI^2 =       1.52982688
 POWELL PROCEDURE, ITERATION      2 CHI^2 =       1.41304039
 POWELL PROCEDURE, ITERATION      3 CHI^2 =       1.40548215
 POWELL PROCEDURE, ITERATION      4 CHI^2 =       1.40547968
 FUNCTION WAS EVALUATED    447 TIMES
 POWELL MINIMIZATION PROCEDURE ALMOST CONVERGED IN     4 ITERATIONS
 ENDING VALUE OF CHI^2 IS      1.40547968
 OPTIMIZED NONLINEAR PARAMETERS ARE
    0.7588   0.8973   0.8558   0.8852   0.8815  10.0000  10.1963  10.0000
  10.0000
 POWELL PROCEDURE REQUIRED     0.6 SECONDS

               ----- OPTIMIZED SCREENING PARAMETERS ----- 
 NAME          X        Y        Z               COEF                 ALPHA
 C          4.9889   5.2345   5.4613         1.0000000000         0.7587946447
 H          3.7228   3.8550   4.9133         1.0000000000         0.8972543012
 H          3.8928   6.9920   5.1401         1.0000000000         0.8557780746
 H          5.5180   5.0078   7.4077         1.0000000000         0.8852208510
 H          6.6707   5.2156   4.2708         1.0000000000         0.8815494292
 BO21       4.3558   4.5448   5.1873         1.0000000000        10.0000000000
 BO31       4.4409   6.1133   5.3007         1.0000000000        10.1963251950
 BO41       5.2534   5.1212   6.4345         1.0000000000        10.0000000000
 BO51       5.8298   5.2251   4.8660         1.0000000000        10.0000000000

 STATISTICS FOR UNSCREENED MULTIPOLES
 ------------------------------------
 AVERAGE UNSIGNED ERROR        (      4071 PTS) = 5.076284E+00
 RMS DEVIATION                 (      4071 PTS) = 1.170989E+01
 RMS DEVIATION (ERR > THRSH/8) (         3 PTS) = 8.056840E+01
 RMS DEVIATION (ERR > THRSH/4) (         0 PTS) = 0.000000E+00
 RMS DEVIATION (ERR > THRSH/2) (         0 PTS) = 0.000000E+00
 RMS DEVIATION (ERR > THRSH)   (         0 PTS) = 0.000000E+00
 
 EFFECTIVE AV. UNSIGNED ERROR  (     28009 PTS) = 7.378183E-01
 EFFECTIVE RMS DEVIATION       (     28009 PTS) = 4.463845E+00


 STATISTICS FOR SCREENED MULTIPOLES
 ----------------------------------
 AVERAGE UNSIGNED ERROR        (      4071 PTS) = 1.454055E+00
 RMS DEVIATION                 (      4071 PTS) = 3.134828E+00
 RMS DEVIATION (ERR > THRSH/8) (         0 PTS) = 0.000000E+00
 RMS DEVIATION (ERR > THRSH/4) (         0 PTS) = 0.000000E+00
 RMS DEVIATION (ERR > THRSH/2) (         0 PTS) = 0.000000E+00
 RMS DEVIATION (ERR > THRSH)   (         0 PTS) = 0.000000E+00
 
 EFFECTIVE AV. UNSIGNED ERROR  (     28009 PTS) = 2.113413E-01
 EFFECTIVE RMS DEVIATION       (     28009 PTS) = 1.195005E+00


 GRID POINTS WITH ERRORS (QUANTUM - EITHER FIT) GREATER THAN  500.00 KCAL/MOL
   POINT  CENTER  DISTANCE   X     Y       Z    QUANTUM      DIFF      DIFF   
                  FROM ORIGIN                              SCREEN  NOSCREEN

 ..... DONE WITH CHARGE PENETRATION SCREENING .....
 STEP CPU TIME =     0.64 TOTAL CPU TIME =        5.9 (    0.1 MIN)
 TOTAL WALL CLOCK TIME=        6.1 SECONDS, CPU UTILIZATION IS  96.73%

 PROCESSING $STONE INPUT...
 THE NUMBER OF "BOUNDARY" CORE MOS IS  0
 THE NUMBER OF MOS WITH ZERO OCCUPATION NUMBER IS  0
  
  ****************************************
  MULTIPOLE EXPANSION FOR EVERY LMO AT ITS
  CENTROID USING ITS OWN ELECTRON DENSITY 
     - NANDUN THELLAMUREGE AND HUI LI -   
  ****************************************
  
 MULTIPOLE EXPANSION FOR LMO             1
 TOTAL ELECTRON CHARGE =     -2.0000000000
 MULTIPOLE EXPANSION FOR LMO             2
 TOTAL ELECTRON CHARGE =     -2.0000000000
 MULTIPOLE EXPANSION FOR LMO             3
 TOTAL ELECTRON CHARGE =     -2.0000000000
 MULTIPOLE EXPANSION FOR LMO             4
 TOTAL ELECTRON CHARGE =     -2.0000000000
 MULTIPOLE EXPANSION FOR LMO             5
 TOTAL ELECTRON CHARGE =     -2.0000000000
  
  DONE WITH LMO EXPANSION.
 STEP CPU TIME =     0.01 TOTAL CPU TIME =        5.9 (    0.1 MIN)
 TOTAL WALL CLOCK TIME=        6.1 SECONDS, CPU UTILIZATION IS  96.73%
               2001912  WORDS OF DYNAMIC MEMORY USED
 EXECUTION OF GAMESS TERMINATED NORMALLY Mon Dec 28 15:10:37 2020
 DDI: 263624 bytes (0.3 MB / 0 MWords) used by master data server.

 ----------------------------------------
 CPU timing information for all processes
 ========================================
 0: 5.880 + 0.46 = 5.927
 ----------------------------------------
 ddikick.x: exited gracefully.
----- accounting info -----
Files used on the master node halstead-a047.rcac.purdue.edu were:
-rw-r--r-- 1 cviquezr student     476 Dec 28 15:10 /scratch/halstead/c/cviquezr/mol1_64_s.F05
-rw-r--r-- 1 cviquezr student  182232 Dec 28 15:10 /scratch/halstead/c/cviquezr/mol1_64_s.F09
-rw-r--r-- 1 cviquezr student 1243360 Dec 28 15:10 /scratch/halstead/c/cviquezr/mol1_64_s.F10
-rw-r--r-- 1 cviquezr student   64808 Dec 28 15:10 /scratch/halstead/c/cviquezr/mol1_64_s.F16
-rw-r--r-- 1 cviquezr student   64808 Dec 28 15:10 /scratch/halstead/c/cviquezr/mol1_64_s.F67
Mon Dec 28 15:10:40 EST 2020
0.212u 0.078s 0:09.43 2.9%	0+0k 0+8io 0pf+0w
