----- GAMESS execution script 'rungms' -----
This job is running on host halstead-a047.rcac.purdue.edu
under operating system Linux at Mon Dec 28 15:10:52 EST 2020
Available scratch disk space (Kbyte units) at beginning of the job is
Filesystem         1K-blocks          Used     Available Use% Mounted on
f02            2459942518784 1349402660864 1110539857920  55% /scratch/halstead
GAMESS temporary binary files will be written to /scratch/halstead/c/cviquezr
GAMESS supplementary output files will be written to /home/cviquezr/scr
Copying input file mol1_86_s.inp to your run's scratch directory...
The generated host list is
localhost

 Distributed Data Interface kickoff program.
 Initiating 1 compute processes on 1 nodes to run the following command:
 /depot/lslipche/apps/gamess/gamess_lyuda/gamess.03.x mol1_86_s 

          ******************************************************
          *         GAMESS VERSION =  1 MAY 2012 (R1)          *
          *             FROM IOWA STATE UNIVERSITY             *
          * M.W.SCHMIDT, K.K.BALDRIDGE, J.A.BOATZ, S.T.ELBERT, *
          *   M.S.GORDON, J.H.JENSEN, S.KOSEKI, N.MATSUNAGA,   *
          *          K.A.NGUYEN, S.J.SU, T.L.WINDUS,           *
          *       TOGETHER WITH M.DUPUIS, J.A.MONTGOMERY       *
          *         J.COMPUT.CHEM.  14, 1347-1363(1993)        *
          **************** 64 BIT INTEL VERSION ****************

  SINCE 1993, STUDENTS AND POSTDOCS WORKING AT IOWA STATE UNIVERSITY
  AND ALSO IN THEIR VARIOUS JOBS AFTER LEAVING ISU HAVE MADE IMPORTANT
  CONTRIBUTIONS TO THE CODE:
     IVANA ADAMOVIC, CHRISTINE AIKENS, YURI ALEXEEV, POOJA ARORA,
     ANDREY ASADCHEV, ROB BELL, PRADIPTA BANDYOPADHYAY, JONATHAN BENTZ,
     BRETT BODE, GALINA CHABAN, WEI CHEN, CHEOL HO CHOI, PAUL DAY,
     ALBERT DEFUSCO, TIM DUDLEY, DMITRI FEDOROV, GRAHAM FLETCHER,
     MARK FREITAG, KURT GLAESEMANN, DAN KEMP, GRANT MERRILL,
     NORIYUKI MINEZAWA, JONATHAN MULLIN, TAKESHI NAGATA,
     SEAN NEDD, HEATHER NETZLOFF, BOSILJKA NJEGIC, RYAN OLSON, MIKE PAK,
     JIM SHOEMAKER, LYUDMILA SLIPCHENKO, SAROM SOK, JIE SONG,
     TETSUYA TAKETSUGU, SIMON WEBB, SOOHAENG YOO, FEDERICO ZAHARIEV

  ADDITIONAL CODE HAS BEEN PROVIDED BY COLLABORATORS IN OTHER GROUPS:
     IOWA STATE UNIVERSITY:
          JOE IVANIC, LAIMUTIS BYTAUTAS, KLAUS RUEDENBERG
     UNIVERSITY OF TOKYO: KIMIHIKO HIRAO, TAKAHITO NAKAJIMA,
          TAKAO TSUNEDA, MUNEAKI KAMIYA, SUSUMU YANAGISAWA,
          KIYOSHI YAGI, MAHITO CHIBA, SEIKEN TOKURA, NAOAKI KAWAKAMI
     UNIVERSITY OF AARHUS: FRANK JENSEN
     UNIVERSITY OF IOWA: VISVALDAS KAIRYS, HUI LI
     NATIONAL INST. OF STANDARDS AND TECHNOLOGY: WALT STEVENS, DAVID GARMER
     UNIVERSITY OF PISA: BENEDETTA MENNUCCI, JACOPO TOMASI
     UNIVERSITY OF MEMPHIS: HENRY KURTZ, PRAKASHAN KORAMBATH
     UNIVERSITY OF ALBERTA: TOBY ZENG, MARIUSZ KLOBUKOWSKI
     UNIVERSITY OF NEW ENGLAND: MARK SPACKMAN
     MIE UNIVERSITY: HIROAKI UMEDA
     MICHIGAN STATE UNIVERSITY:
          KAROL KOWALSKI, MARTA WLOCH, JEFFREY GOUR, JESSE LUTZ, PIOTR PIECUCH
     UNIVERSITY OF SILESIA: MONIKA MUSIAL, STANISLAW KUCHARSKI
     FACULTES UNIVERSITAIRES NOTRE-DAME DE LA PAIX:
          OLIVIER QUINET, BENOIT CHAMPAGNE
     UNIVERSITY OF CALIFORNIA - SANTA BARBARA: BERNARD KIRTMAN
     INSTITUTE FOR MOLECULAR SCIENCE:
          KAZUYA ISHIMURA, MICHIO KATOUDA, AND SHIGERU NAGASE
     UNIVERSITY OF NOTRE DAME: DAN CHIPMAN
     KYUSHU UNIVERSITY:
          HARUYUKI NAKANO,
          FENG LONG GU, JACEK KORCHOWIEC, MARCIN MAKOWSKI, AND YURIKO AOKI,
          HIROTOSHI MORI AND EISAKU MIYOSHI
     PENNSYLVANIA STATE UNIVERSITY:
          TZVETELIN IORDANOV, CHET SWALINA, JONATHAN SKONE,
          SHARON HAMMES-SCHIFFER
     WASEDA UNIVERSITY:
          MASATO KOBAYASHI, TOMOKO AKAMA, TSUGUKI TOUMA,
          TAKESHI YOSHIKAWA, YASUHIRO IKABATA, HIROMI NAKAI
     UNIVERSITY OF NEBRASKA:
          PEIFENG SU, DEJUN SI, NANDUN THELLAMUREGE, YALI WANG, HUI LI
     UNIVERSITY OF ZURICH:
          ROBERTO PEVERATI, KIM BALDRIDGE
     N. COPERNICUS UNIVERSITY AND JACKSON STATE UNIVERSITY:
          MARIA BARYSZ

 EXECUTION OF GAMESS BEGUN Mon Dec 28 15:10:52 2020

            ECHO OF THE FIRST FEW INPUT CARDS -
 INPUT CARD> $contrl units=angs local=boys runtyp=makefp                                    
 INPUT CARD> mult=1 icharg=0 icut=11 $end                                                   
 INPUT CARD> $system timlim=99999   mwords=500 $end                                         
 INPUT CARD> $scf soscf=.f. dirscf=.t. diis=.t. CONV=1.0d-06  $end                          
 INPUT CARD> $basis gbasis=n31 ngauss=6 npfunc=0 ndfunc=1 nffunc=0                          
 INPUT CARD> diffs=.f. diffsp=.f. $end                                                      
 INPUT CARD> $DAMP IFTTYP(1)=2,0 IFTFIX(1)=1,1 thrsh=500.0 $end                             
 INPUT CARD> $MAKEFP  POL=.t. DISP=.t. CHTR=.f.  EXREP=.t. $end                             
 INPUT CARD> $data                                                                          
 INPUT CARD> mol1_86                                                                        
 INPUT CARD> C1                                                                             
 INPUT CARD>C 6 2.60 2.78 2.97                                                              
 INPUT CARD>H 1 1.88 1.97 2.83                                                              
 INPUT CARD>H 1 2.27 3.88 2.94                                                              
 INPUT CARD>H 1 3.13 2.69 3.95                                                              
 INPUT CARD>H 1 3.41 2.65 2.18                                                              
 INPUT CARD> $end                                                                           
  500000000 WORDS OF MEMORY AVAILABLE

     BASIS OPTIONS
     -------------
     GBASIS=N31          IGAUSS=       6      POLAR=POPN31  
     NDFUNC=       1     NFFUNC=       0     DIFFSP=       F
     NPFUNC=       0      DIFFS=       F     BASNAM=        


     RUN TITLE
     ---------
  mol1_86                                                                        

 THE POINT GROUP OF THE MOLECULE IS C1      
 THE ORDER OF THE PRINCIPAL AXIS IS     0

 ATOM      ATOMIC                      COORDINATES (BOHR)
           CHARGE         X                   Y                   Z
 C           6.0     4.9132875681        5.2534382459        5.6124861835
 H           1.0     3.5526848569        3.7227601958        5.3479245453
 H           1.0     4.2896779921        7.3321368324        5.5557944039
 H           1.0     5.9148423416        5.0833629070        7.4644176515
 H           1.0     6.4439656181        5.0077738675        4.1196026532

          INTERNUCLEAR DISTANCES (ANGS.)
          ------------------------------

                1 C          2 H          3 H          4 H          5 H     

   1 C       0.0000000    1.0927488 *  1.1488255 *  1.1177656 *  1.1389030 *
   2 H       1.0927488 *  0.0000000    1.9525112 *  1.8262804 *  1.7960512 *
   3 H       1.1488255 *  1.9525112 *  0.0000000    1.7820774 *  1.8412224 *
   4 H       1.1177656 *  1.8262804 *  1.7820774 *  0.0000000    1.7924564 *
   5 H       1.1389030 *  1.7960512 *  1.8412224 *  1.7924564 *  0.0000000  

  * ... LESS THAN  3.000


     ATOMIC BASIS SET
     ----------------
 THE CONTRACTED PRIMITIVE FUNCTIONS HAVE BEEN UNNORMALIZED
 THE CONTRACTED BASIS FUNCTIONS ARE NOW NORMALIZED TO UNITY

  SHELL TYPE  PRIMITIVE        EXPONENT          CONTRACTION COEFFICIENT(S)

 C         

      1   S       1          3047.5248800    0.001834737132
      1   S       2           457.3695180    0.014037322813
      1   S       3           103.9486850    0.068842622264
      1   S       4            29.2101553    0.232184443216
      1   S       5             9.2866630    0.467941348435
      1   S       6             3.1639270    0.362311985337

      2   L       7             7.8682723   -0.119332419775    0.068999066591
      2   L       8             1.8812885   -0.160854151696    0.316423960957
      2   L       9             0.5442493    1.143456437840    0.744308290898

      3   L      10             0.1687145    1.000000000000    1.000000000000

      4   D      11             0.8000000    1.000000000000

 H         

      5   S      12            18.7311370    0.033494604338
      5   S      13             2.8253944    0.234726953484
      5   S      14             0.6401217    0.813757326146

      6   S      15             0.1612778    1.000000000000

 H         

      7   S      16            18.7311370    0.033494604338
      7   S      17             2.8253944    0.234726953484
      7   S      18             0.6401217    0.813757326146

      8   S      19             0.1612778    1.000000000000

 H         

      9   S      20            18.7311370    0.033494604338
      9   S      21             2.8253944    0.234726953484
      9   S      22             0.6401217    0.813757326146

     10   S      23             0.1612778    1.000000000000

 H         

     11   S      24            18.7311370    0.033494604338
     11   S      25             2.8253944    0.234726953484
     11   S      26             0.6401217    0.813757326146

     12   S      27             0.1612778    1.000000000000

 TOTAL NUMBER OF BASIS SET SHELLS             =   12
 NUMBER OF CARTESIAN GAUSSIAN BASIS FUNCTIONS =   23
 NUMBER OF ELECTRONS                          =   10
 CHARGE OF MOLECULE                           =    0
 SPIN MULTIPLICITY                            =    1
 NUMBER OF OCCUPIED ORBITALS (ALPHA)          =    5
 NUMBER OF OCCUPIED ORBITALS (BETA )          =    5
 TOTAL NUMBER OF ATOMS                        =    5
 THE NUCLEAR REPULSION ENERGY IS       13.0326818653

     $CONTRL OPTIONS
     ---------------
 SCFTYP=RHF          RUNTYP=MAKEFP       EXETYP=RUN     
 MPLEVL=       0     CITYP =NONE         CCTYP =NONE         VBTYP =NONE    
 DFTTYP=NONE         TDDFT =NONE    
 MULT  =       1     ICHARG=       0     NZVAR =       0     COORD =UNIQUE  
 PP    =NONE         RELWFN=NONE         LOCAL =BOYS         NUMGRD=       F
 ISPHER=      -1     NOSYM =       0     MAXIT =      30     UNITS =ANGS    
 PLTORB=       F     MOLPLT=       F     AIMPAC=       F     FRIEND=        
 NPRINT=       7     IREST =       0     GEOM  =INPUT   
 NORMF =       0     NORMP =       0     ITOL  =      20     ICUT  =      11
 INTTYP=BEST         GRDTYP=BEST         QMTTOL= 1.0E-06

     $SYSTEM OPTIONS
     ---------------
  REPLICATED MEMORY=   500000000 WORDS (ON EVERY NODE).
 DISTRIBUTED MEMDDI=           0 MILLION WORDS IN AGGREGATE,
 MEMDDI DISTRIBUTED OVER   1 PROCESSORS IS           0 WORDS/PROCESSOR.
 TOTAL MEMORY REQUESTED ON EACH PROCESSOR=   500000000 WORDS.
 TIMLIM=       99999.00 MINUTES, OR      69.4 DAYS.
 PARALL= F  BALTYP=  DLB     KDIAG=    0  COREFL= F
 MXSEQ2=     300 MXSEQ3=     150

     INPUT FOR POTENTIAL-DERIVED CHARGES 
     -----------------------------------
     VDWSCL=    0.00   RMAX=    3.00   DELR=    0.80
     VDWINC=    0.10 PTDENS=    0.28
     LAYER =      25  NFREQ=      30 MAXPDC=  100000
     CONSTR=CHARGE    UNITS=ANGS      PTSEL=GEODESIC
     CENTER=  0.0000  0.0000  0.0000
     DPOLE =  0.0000  0.0000  0.0000
     QPOLE =  0.0000  0.0000  0.0000  0.0000  0.0000  0.0000


          ----------------
          PROPERTIES INPUT
          ----------------

     MOMENTS            FIELD           POTENTIAL          DENSITY
 IEMOM =       1   IEFLD =       0   IEPOT =       0   IEDEN =       0
 WHERE =COMASS     WHERE =NUCLEI     WHERE =NUCLEI     WHERE =NUCLEI  
 OUTPUT=BOTH       OUTPUT=BOTH       OUTPUT=BOTH       OUTPUT=BOTH    
 IEMINT=       0   IEFINT=       0                     IEDINT=       0
                                                       MORB  =       0
          EXTRAPOLATION IN EFFECT
          DIIS IN EFFECT
 ORBITAL PRINTING OPTION: NPREO=     1    23     2     1

     -------------------------------
     INTEGRAL TRANSFORMATION OPTIONS
     -------------------------------
     NWORD  =            0
     CUTOFF = 1.0E-09     MPTRAN =       0
     DIRTRF =       T     AOINTS =DUP     

          -----------------------------
          LOCALIZATION INPUT PARAMETERS
          -----------------------------
           LOCAL=BOYS          NOUTA=       1
          PRTLOC=       F      NOUTB=       0
          MAXLOC=     250     CVGLOC=1.00E-06
           FCORE=       T     SYMLOC=       F
          MOIDON=       F     EDCOMP=       F
          DIPDCM=       F      NPROT=       0
          QADDCM=       F     DEPRNT=       F
          POLNUM=       F     ORIENT=       F
          POLDYN=       T      VMTOL=1.50E-01
          NPRDTL=       2
          MOOUTA =      1

          ----------------------
          INTEGRAL INPUT OPTIONS
          ----------------------
 NOPK  =       1 NORDER=       0 SCHWRZ=       T

     ------------------------------------------
     THE POINT GROUP IS C1 , NAXIS= 0, ORDER= 1
     ------------------------------------------

     DIMENSIONS OF THE SYMMETRY SUBSPACES ARE
 A   =   23

 ..... DONE SETTING UP THE RUN .....
 STEP CPU TIME =     0.01 TOTAL CPU TIME =        0.0 (    0.0 MIN)
 TOTAL WALL CLOCK TIME=        0.0 SECONDS, CPU UTILIZATION IS  50.00%

          --------------
          MAKEFP OPTIONS
          --------------
          FRAG=FRAGNAME
          SCREEN= T    POL   = T    EXREP = T
          DISP  = T    CHTR  = F    CTVVO =

          ********************
          1 ELECTRON INTEGRALS
          ********************
 ...... END OF ONE-ELECTRON INTEGRALS ......
 STEP CPU TIME =     0.00 TOTAL CPU TIME =        0.0 (    0.0 MIN)
 TOTAL WALL CLOCK TIME=        0.0 SECONDS, CPU UTILIZATION IS  50.00%

          -------------
          GUESS OPTIONS
          -------------
          GUESS =HUCKEL            NORB  =       0          NORDER=       0
          MIX   =       F          PRTMO =       F          PUNMO =       F
          TOLZ  = 1.0E-08          TOLE  = 1.0E-05
          SYMDEN=       F          PURIFY=       F

 INITIAL GUESS ORBITALS GENERATED BY HUCKEL   ROUTINE.
 HUCKEL GUESS REQUIRES      7663 WORDS.

 SYMMETRIES FOR INITIAL GUESS ORBITALS FOLLOW.   BOTH SET(S).
     5 ORBITALS ARE OCCUPIED (    1 CORE ORBITALS).
     2=A        3=A        4=A        5=A        6=A        7=A        8=A   
     9=A       10=A       11=A       12=A       13=A       14=A       15=A   
 ...... END OF INITIAL ORBITAL SELECTION ......
 STEP CPU TIME =     0.00 TOTAL CPU TIME =        0.0 (    0.0 MIN)
 TOTAL WALL CLOCK TIME=        0.0 SECONDS, CPU UTILIZATION IS  33.33%

                    ----------------------
                    AO INTEGRAL TECHNOLOGY
                    ----------------------
     S,P,L SHELL ROTATED AXIS INTEGRALS, REPROGRAMMED BY
        KAZUYA ISHIMURA (IMS) AND JOSE SIERRA (SYNSTAR).
     S,P,D,L SHELL ROTATED AXIS INTEGRALS PROGRAMMED BY
        KAZUYA ISHIMURA (INSTITUTE FOR MOLECULAR SCIENCE).
     S,P,D,F,G SHELL TO TOTAL QUARTET ANGULAR MOMENTUM SUM 5,
        ERIC PROGRAM BY GRAHAM FLETCHER (ELORET AND NASA ADVANCED
        SUPERCOMPUTING DIVISION, AMES RESEARCH CENTER).
     S,P,D,F,G,L SHELL GENERAL RYS QUADRATURE PROGRAMMED BY
        MICHEL DUPUIS (PACIFIC NORTHWEST NATIONAL LABORATORY).

          --------------------
          2 ELECTRON INTEGRALS
          --------------------

 DIRECT SCF METHOD SKIPS INTEGRAL STORAGE ON DISK.
 DIRECT TRANSFORMATION SKIPS AO INTEGRAL STORAGE ON DISK.
  ...... END OF TWO-ELECTRON INTEGRALS .....
 STEP CPU TIME =     0.00 TOTAL CPU TIME =        0.0 (    0.0 MIN)
 TOTAL WALL CLOCK TIME=        0.0 SECONDS, CPU UTILIZATION IS  33.33%

          --------------------------
                 RHF SCF CALCULATION
          --------------------------

     NUCLEAR ENERGY =        13.0326818653
     MAXIT =   30     NPUNCH=    2
     EXTRAP=T  DAMP=F  SHIFT=F  RSTRCT=F  DIIS=T  DEM=F  SOSCF=F
     DENSITY MATRIX CONV=  2.00E-06
     MEMORY REQUIRED FOR RHF ITERS=     50242 WORDS.

 DIRECT SCF CALCULATION, SCHWRZ=T   FDIFF=T,  DIRTHR=  0.00E+00 NITDIR=10
 SCHWARZ INEQUALITY OVERHEAD:       276 INTEGRALS, T=        0.01

                                                                                   NONZERO     BLOCKS
 ITER EX DEM     TOTAL ENERGY        E CHANGE  DENSITY CHANGE    DIIS ERROR      INTEGRALS    SKIPPED
          * * *   INITIATING DIIS PROCEDURE   * * *
   1  0  0      -40.1015839152   -40.1015839152   0.163496382   0.349799934          32154          0
   2  1  0      -40.1810410058    -0.0794570907   0.046361986   0.047346244          32154          0
   3  2  0      -40.1850927966    -0.0040517908   0.015557604   0.020234591          32154          0
   4  3  0      -40.1857200664    -0.0006272698   0.004541974   0.003541976          32154          0
   5  4  0      -40.1857579839    -0.0000379175   0.000375724   0.000296327          32154          0
   6  5  0      -40.1857583317    -0.0000003479   0.000047464   0.000054285          32154          0
   7  6  0      -40.1857583385    -0.0000000068   0.000008440   0.000011286          32154          0
   8  7  0      -40.1857583387    -0.0000000002   0.000001308   0.000001419          32154          0
   9  8  0      -40.1857583387    -0.0000000000   0.000000287   0.000000295          32154          0

          -----------------
          DENSITY CONVERGED
          -----------------
     TIME TO FORM FOCK OPERATORS=       0.0 SECONDS (       0.0 SEC/ITER)
     FOCK TIME ON FIRST ITERATION=       0.0, LAST ITERATION=       0.0
     TIME TO SOLVE SCF EQUATIONS=       0.0 SECONDS (       0.0 SEC/ITER)

 FINAL RHF ENERGY IS      -40.1857583387 AFTER   9 ITERATIONS

          ------------
          EIGENVECTORS
          ------------

                      1          2          3          4          5
                  -11.2248    -0.9293    -0.5624    -0.5244    -0.5188
                     A          A          A          A          A   
    1  C  1  S    0.995723  -0.192599   0.002295   0.000709   0.007084
    2  C  1  S    0.027711   0.355413  -0.009541   0.000877  -0.016669
    3  C  1  X    0.000102   0.010877   0.191646  -0.067239   0.378246
    4  C  1  Y   -0.000011  -0.009541   0.367810  -0.100455  -0.193797
    5  C  1  Z    0.000017   0.005059   0.121428   0.410599   0.016353
    6  C  1  S   -0.012471   0.379547   0.006957  -0.008188  -0.012733
    7  C  1  X   -0.000496   0.007914   0.098398  -0.038403   0.213008
    8  C  1  Y   -0.000015  -0.000545   0.195082  -0.056169  -0.113779
    9  C  1  Z   -0.000084   0.001803   0.063227   0.227798   0.007547
   10  C  1 XX   -0.001934   0.008289  -0.010679  -0.006761   0.009201
   11  C  1 YY   -0.001900   0.012460   0.001364  -0.004525  -0.035116
   12  C  1 ZZ   -0.001980   0.008817   0.010618   0.010576   0.026049
   13  C  1 XY    0.000085   0.003242  -0.029692   0.007767  -0.001357
   14  C  1 XZ    0.000036   0.000927   0.003518   0.034637  -0.006841
   15  C  1 YZ    0.000015   0.002031  -0.005904  -0.005313   0.000165
   16  H  2  S   -0.000052   0.137366  -0.269133   0.045654  -0.094487
   17  H  2  S    0.002229   0.041708  -0.208036   0.038975  -0.089902
   18  H  3  S    0.000041   0.123251   0.174689  -0.061851  -0.221160
   19  H  3  S    0.002142   0.038473   0.136429  -0.056201  -0.205394
   20  H  4  S    0.000077   0.134247   0.101271   0.233024   0.135814
   21  H  4  S    0.002408   0.038763   0.079756   0.209997   0.120718
   22  H  5  S    0.000100   0.128665   0.003514  -0.222476   0.183130
   23  H  5  S    0.002335   0.038165   0.001871  -0.202684   0.164796

                      6          7          8          9         10
                    0.2470     0.3058     0.3137     0.3265     0.7320
                     A          A          A          A          A   
    1  C  1  S   -0.158638  -0.007104   0.006410   0.005752   0.002594
    2  C  1  S    0.120794  -0.005647  -0.001852  -0.008457   0.076165
    3  C  1  X    0.001582   0.263052   0.042858   0.140533  -0.710587
    4  C  1  Y    0.026318  -0.155759   0.086663   0.257685   0.020175
    5  C  1  Z   -0.009029  -0.010873  -0.292588   0.099294  -0.240546
    6  C  1  S    2.586221   0.219471  -0.174917  -0.143272  -0.103313
    7  C  1  X    0.076780   1.166670   0.186966   0.729171   1.171563
    8  C  1  Y    0.084266  -0.666541   0.403038   1.311156   0.117370
    9  C  1  Z   -0.015342  -0.034961  -1.298642   0.489128   0.430446
   10  C  1 XX   -0.011989  -0.004614  -0.001002   0.004657   0.006996
   11  C  1 YY   -0.013442   0.016285  -0.002413   0.000744   0.094648
   12  C  1 ZZ   -0.010082  -0.013793   0.005450  -0.003923  -0.076125
   13  C  1 XY    0.000753  -0.000012   0.004176   0.010155   0.042331
   14  C  1 XZ    0.000415   0.004102   0.014317  -0.000472  -0.002695
   15  C  1 YZ    0.000510  -0.000027  -0.000761   0.002088   0.010734
   16  H  2  S   -0.009205   0.047231   0.013674   0.056633   0.408308
   17  H  2  S   -0.963867   0.425916   0.407753   1.969655   0.054364
   18  H  3  S   -0.018124   0.087326  -0.025797  -0.020813   0.249886
   19  H  3  S   -1.068242   1.313508  -0.441672  -1.089302  -0.173668
   20  H  4  S    0.005702  -0.034217   0.076861  -0.023133  -0.344598
   21  H  4  S   -0.934475  -0.832266   1.563889  -0.754569  -0.002581
   22  H  5  S   -0.000226  -0.057821  -0.072105   0.000358  -0.193061
   23  H  5  S   -0.969224  -1.277848  -1.300024   0.017909   0.035387

                     11         12         13         14         15
                    0.7401     0.7637     1.1201     1.1367     1.1815
                     A          A          A          A          A   
    1  C  1  S   -0.002875   0.003869  -0.028808  -0.009146   0.008919
    2  C  1  S   -0.033183   0.025568   0.156935   0.176232  -0.439698
    3  C  1  X    0.239025   0.071025  -0.700975   0.221190  -0.493797
    4  C  1  Y    0.198897  -0.744797   0.445949   0.181045  -0.655323
    5  C  1  Z   -0.695099  -0.195186  -0.056453  -0.816733  -0.309799
    6  C  1  S    0.097481  -0.120940  -0.146337  -0.323491   0.913691
    7  C  1  X   -0.395464   0.011097   0.963866  -0.287925   0.651164
    8  C  1  Y   -0.363240   1.495289  -0.587214  -0.239305   0.854042
    9  C  1  Z    1.142363   0.407315   0.083647   1.080508   0.404849
   10  C  1 XX    0.015631   0.049574   0.060881  -0.026470  -0.093232
   11  C  1 YY   -0.001259  -0.063422  -0.186871   0.001306  -0.040636
   12  C  1 ZZ   -0.018576   0.013315   0.138101   0.049383   0.060771
   13  C  1 XY   -0.034160   0.088473   0.016721   0.046031  -0.175977
   14  C  1 XZ   -0.100893  -0.023735  -0.028749   0.190849   0.028714
   15  C  1 YZ    0.011032   0.019022  -0.000910  -0.024275  -0.036403
   16  H  2  S   -0.173000   0.349763  -0.338297   0.110055  -0.688604
   17  H  2  S   -0.031024   0.317163   0.495002  -0.223217   1.165691
   18  H  3  S    0.081648  -0.470672  -0.866934  -0.198885   0.503600
   19  H  3  S    0.015655  -0.185957   1.364216   0.338663  -0.902902
   20  H  4  S   -0.392658  -0.033373   0.217134   0.568399   0.502292
   21  H  4  S    0.005025  -0.077240  -0.641659  -1.075392  -0.949979
   22  H  5  S    0.441354   0.195245   0.308224  -0.781747   0.136260
   23  H  5  S   -0.035086   0.033130  -0.782278   1.383466  -0.306094

                     16         17         18         19         20
                    1.1984     1.3065     1.9464     1.9560     2.4775
                     A          A          A          A          A   
    1  C  1  S    0.079466  -0.110680  -0.007225   0.010293  -0.003893
    2  C  1  S   -0.920374  -1.866644  -0.064933   0.092573   0.017736
    3  C  1  X   -0.035638   0.018578  -0.001866   0.001152  -0.002036
    4  C  1  Y    0.355049   0.020190  -0.002783   0.001313  -0.102712
    5  C  1  Z   -0.062386   0.015158   0.003316  -0.000315  -0.011117
    6  C  1  S    1.519187   4.897907   0.199962  -0.284556   0.046566
    7  C  1  X   -0.031129   0.257510   0.018239  -0.024636  -0.015716
    8  C  1  Y   -0.466694  -0.028335   0.002791  -0.007078  -0.498355
    9  C  1  Z    0.063034   0.040700   0.004510  -0.003925  -0.085435
   10  C  1 XX   -0.031684  -0.097653   0.019090   0.894402   0.436574
   11  C  1 YY   -0.081494  -0.130876  -0.030492  -0.300196  -0.645654
   12  C  1 ZZ   -0.013160  -0.184926   0.003191  -0.582448   0.202585
   13  C  1 XY    0.075481   0.021620  -0.184302  -0.310542   0.850052
   14  C  1 XZ    0.015849   0.010939   0.176887   0.260972  -0.100413
   15  C  1 YZ    0.025946  -0.027452   0.966175  -0.123282   0.161220
   16  H  2  S    0.732165  -0.192452  -0.031764   0.042948  -0.488010
   17  H  2  S   -0.978534  -0.970536  -0.025542   0.037226  -0.051690
   18  H  3  S    0.229559  -0.368210  -0.033519   0.057240   0.692578
   19  H  3  S   -0.025262  -0.761305  -0.027564   0.037226  -0.036706
   20  H  4  S    0.672524  -0.442957  -0.044282   0.051646  -0.059000
   21  H  4  S   -0.726075  -0.875921  -0.032801   0.049822   0.039947
   22  H  5  S    0.592057  -0.453890  -0.034033   0.053249  -0.217297
   23  H  5  S   -0.570065  -0.830342  -0.034477   0.046680   0.022910

                     21         22         23
                    2.5401     2.5671     4.5776
                     A          A          A   
    1  C  1  S   -0.004054   0.005525  -0.482431
    2  C  1  S    0.016133  -0.039427   2.981269
    3  C  1  X   -0.035410   0.129861  -0.011794
    4  C  1  Y   -0.023958   0.029168   0.007622
    5  C  1  Z    0.110004   0.050493  -0.004116
    6  C  1  S    0.032559   0.010112   2.265390
    7  C  1  X   -0.111051   0.341398   0.085661
    8  C  1  Y   -0.050281   0.101053  -0.000007
    9  C  1  Z    0.339301   0.137187   0.015660
   10  C  1 XX   -0.236089  -0.021101  -1.872054
   11  C  1 YY    0.065914  -0.827617  -1.876011
   12  C  1 ZZ    0.159023   0.875070  -1.856300
   13  C  1 XY    0.244281  -0.524154  -0.017157
   14  C  1 XZ    1.048077   0.047087  -0.007903
   15  C  1 YZ   -0.139510  -0.128591  -0.000489
   16  H  2  S   -0.200081   0.670306   0.149525
   17  H  2  S    0.034190  -0.086156  -0.457915
   18  H  3  S    0.032994   0.288327   0.103892
   19  H  3  S   -0.007945  -0.122061  -0.422246
   20  H  4  S   -0.581872  -0.533645   0.109445
   21  H  4  S    0.092437   0.077553  -0.471689
   22  H  5  S    0.665168  -0.282194   0.095428
   23  H  5  S   -0.119714   0.054176  -0.451882
 LVS DENSITY MATRIX
 1  1 2.05722955E+00-8.19975560E-02 2.15608522E-03 2.45323612E-03-5.43342846E-04
 1  2-1.71196702E-01-6.21256932E-04-6.15546052E-04-1.40873322E-04-6.97179419E-03
 1  3-9.08096005E-03-6.90637657E-03-1.22433211E-03-3.17120759E-04-7.85651830E-04
 1  4-5.55260386E-02-1.38000990E-02-4.98134606E-02-1.29169421E-02-4.88391825E-02
 1  5-7.76208898E-03-4.70675214E-02-7.99560634E-03
 2  1-8.19975560E-02 2.54912375E-01-8.64788472E-03-7.51675493E-03 1.45493843E-03
 2  2 2.69378035E-01-3.44815770E-03-4.16124188E-04 2.18338844E-04 5.67015524E-03
 2  3 9.88852164E-03 5.10515077E-03 2.93490159E-03 8.82524450E-04 1.54263586E-03
 2  4 1.06006108E-01 3.68063184E-02 9.15435128E-02 3.16120390E-02 8.93793853E-02
 2  5 2.25094596E-02 8.49009422E-02 2.13727623E-02
 3  1 2.15608522E-03-8.64788472E-03 3.68875816E-01 7.67402121E-03 3.80713881E-03
 3  2 2.38953224E-03 2.04190249E-01-3.75806233E-03-6.50680335E-04 3.95641665E-03
 3  3-2.51632443E-02 2.25450835E-02-1.33813063E-02-8.46448553E-03-1.37978779E-03
 3  4-1.77786147E-01-1.52082317E-01-8.93501890E-02-9.46922820E-02 1.13142591E-01
 3  5 9.44958497E-02 1.72600184E-01 1.53471421E-01
 4  1 2.45323612E-03-7.51675493E-03 7.67402121E-03 3.66047799E-01 3.96913749E-04
 4  2 4.45512145E-03-2.61232563E-03 1.98901956E-01-2.21556375E-03-1.02221282E-02
 4  3 1.52857029E-02-4.57910369E-03-2.29382174E-02-1.73724297E-03-3.37811909E-03
 4  4-1.73151058E-01-1.26816653E-01 2.24299125E-01 1.90526549E-01-2.75222637E-02
 4  5-3.10495341E-02-2.61530385E-02-2.25048679E-02
 5  1-5.43342846E-04 1.45493843E-03 3.80713881E-03 3.96913749E-04 3.67257920E-01
 5  2-1.61130942E-03-5.93551854E-04-2.47544261E-03 2.02687364E-01-7.76058662E-03
 5  3-4.40702627E-03 1.22044950E-02-8.44201584E-04 2.90833676E-02-5.77127302E-03
 5  4-2.95697774E-02-2.10348437E-02-1.43538896E-02-1.93477162E-02 2.21753267E-01
 5  5 1.96158812E-01-1.74552058E-01-1.60213274E-01
 6  1-1.71196702E-01 2.69378035E-01 2.38953224E-03 4.45512145E-03-1.61130942E-03
 6  2 2.88977534E-01 2.59374768E-03 6.11811256E-03-1.67240702E-03 6.06828649E-03
 6  3 1.04931882E-02 6.05352088E-03 1.95337403E-03 3.58601845E-04 1.54233392E-03
 6  4 1.02188674E-01 3.03615872E-02 1.02633169E-01 3.72001645E-02 9.60388352E-02
 6  5 2.39616092E-02 9.66945407E-02 2.80612436E-02
 7  1-6.21256932E-04-3.44815770E-03 2.04190249E-01-2.61232563E-03-5.93551854E-04
 7  2 2.59374768E-03 1.13184108E-01-5.77472369E-03-1.80978471E-03 2.47058626E-03
 7  3-1.41449850E-02 1.25162025E-02-6.96674602E-03-4.86776635E-03-6.51558262E-04
 7  4-9.45491252E-02-8.15758281E-02-5.31379225E-02-5.57290716E-02 6.20155356E-02
 7  5 5.16052125E-02 9.78317120E-02 8.67431592E-02
 8  1-6.15546052E-04-4.16124188E-04-3.75806233E-03 1.98901956E-01-2.47544261E-03
 8  2 6.11811256E-03-5.77472369E-03 1.08316090E-01-2.64080327E-03-5.51001568E-03
 8  3 9.01802601E-03-2.98278513E-03-1.21519227E-02-9.62765554E-04-1.74628863E-03
 8  4-8.87834257E-02-6.51343201E-02 1.25297840E-01 1.06240370E-01-1.77169299E-02
 8  5-1.99852320E-02-1.54497008E-02-1.40434206E-02
 9  1-1.40873322E-04 2.18338844E-04-6.50680335E-04-2.21556375E-03 2.02687364E-01
 9  2-1.67240702E-03-1.80978471E-03-2.64080327E-03 1.11899783E-01-4.26144541E-03
 9  3-2.37383499E-03 6.58626957E-03-2.24844399E-04 1.61251895E-02-3.15756376E-03
 9  4-1.41638364E-02-9.75704130E-03-8.98300451E-03-1.13149755E-02 1.21505173E-01
 9  5 1.07720984E-01-9.76867730E-02-8.94808700E-02
10  1-6.97179419E-03 5.67015524E-03 3.95641665E-03-1.02221282E-02-7.76058662E-03
10  2 6.06828649E-03 2.47058626E-03-5.51001568E-03-4.26144541E-03 6.33728829E-04
10  3-4.00262084E-04 2.63426104E-04 5.57606780E-04-6.54125627E-04 2.34593542E-04
10  4 5.66972979E-03 2.94480326E-03-4.92154707E-03-5.30424834E-03-5.89176964E-04
10  5-1.68807764E-03 8.43577367E-03 6.35689942E-03
11  1-9.08096005E-03 9.88852164E-03-2.51632443E-02 1.52857029E-02-4.40702627E-03
11  2 1.04931882E-02-1.41449850E-02 9.01802601E-03-2.37383499E-03-4.00262084E-04
11  3 2.82871867E-03-1.66901844E-03 2.45043698E-05 1.99567848E-04 7.09920531E-05
11  4 8.91204562E-03 6.42469832E-03 1.96402650E-02 1.62568381E-02-8.02587628E-03
11  5-9.20430246E-03-7.63277870E-03-8.79252304E-03
12  1-6.90637657E-03 5.10515077E-03 2.25450835E-02-4.57910369E-03 1.22044950E-02
12  2 6.05352088E-03 1.25162025E-02-2.98278513E-03 6.58626957E-03 2.63426104E-04
12  3-1.66901844E-03 1.96963482E-03-4.80097468E-04 4.67113535E-04-1.93426656E-04
12  4-7.24954684E-03-7.55043686E-03-6.94764422E-03-8.32254040E-03 1.65221469E-02
12  5 1.30987154E-02 7.17824605E-03 5.00209980E-03
13  1-1.22433211E-03 2.93490159E-03-1.33813063E-02-2.29382174E-02-8.44201584E-04
13  2 1.95337403E-03-6.96674602E-03-1.21519227E-02-2.24844399E-04 5.57606780E-04
13  3 2.45043698E-05-4.80097468E-04 1.90858731E-03 3.53731267E-04 2.80792374E-04
13  4 1.78385442E-02 1.34742713E-02-9.93486715E-03-8.16728473E-03-1.89214938E-03
13  5-1.55002131E-03-3.32732034E-03-3.45903781E-03
14  1-3.17120759E-04 8.82524450E-04-8.46448553E-03-1.73724297E-03 2.90833676E-02
14  2 3.58601845E-04-4.86776635E-03-9.62765554E-04 1.61251895E-02-6.54125627E-04
14  3 1.99567848E-04 4.67113535E-04 3.53731267E-04 2.51944673E-03-4.08100005E-04
14  4 2.81652239E-03 2.54379635E-03 1.98786297E-04-5.16886953E-05 1.52454508E-02
14  5 1.35286480E-02-1.76539346E-02-1.62112140E-02
15  1-7.85651830E-04 1.54263586E-03-1.37978779E-03-3.37811909E-03-5.77127302E-03
15  2 1.54233392E-03-6.51558262E-04-1.74628863E-03-3.15756376E-03 2.34593542E-04
15  3 7.09920531E-05-1.93426656E-04 2.80792374E-04-4.08100005E-04 1.34487753E-04
15  4 3.21976801E-03 2.18225381E-03-9.77463101E-04-9.24919791E-04-3.08202625E-03
15  5-2.97610199E-03 2.90572396E-03 2.34115082E-03
16  1-5.55260386E-02 1.06006108E-01-1.77786147E-01-1.73151058E-01-2.95697774E-02
16  2 1.02188674E-01-9.45491252E-02-8.87834257E-02-1.41638364E-02 5.66972979E-03
16  3 8.91204562E-03-7.24954684E-03 1.78385442E-02 2.81652239E-03 3.21976801E-03
16  4 2.04627890E-01 1.43984995E-01-2.40223165E-02-2.91830209E-02-2.20167560E-02
16  5-3.59184870E-02-2.14637640E-02-4.01710578E-02
17  1-1.38000990E-02 3.68063184E-02-1.52082317E-01-1.26816653E-01-2.10348437E-02
17  2 3.03615872E-02-8.15758281E-02-6.51343201E-02-9.75704130E-03 2.94480326E-03
17  3 6.42469832E-03-7.55043686E-03 1.34742713E-02 2.54379635E-03 2.18225381E-03
17  4 1.43984995E-01 1.09250078E-01-2.74576132E-02-2.09955072E-02-3.71928206E-02
17  5-3.52762207E-02-4.09982771E-02-4.30147355E-02
18  1-4.98134606E-02 9.15435128E-02-8.93501890E-02 2.24299125E-01-1.43538896E-02
18  2 1.02633169E-01-5.31379225E-02 1.25297840E-01-8.98300451E-03-4.92154707E-03
18  3 1.96402650E-02-6.94764422E-03-9.93486715E-03 1.98786297E-04-9.77463101E-04
18  4-2.40223165E-02-2.74576132E-02 1.96887976E-01 1.54951018E-01-2.04246751E-02
18  5-4.19524746E-02-2.05375685E-02-3.77585015E-02
19  1-1.29169421E-02 3.16120390E-02-9.46922820E-02 1.90526549E-01-1.93477162E-02
19  2 3.72001645E-02-5.57290716E-02 1.06240370E-01-1.13149755E-02-5.30424834E-03
19  3 1.62568381E-02-8.32254040E-03-8.16728473E-03-5.16886953E-05-9.24919791E-04
19  4-2.91830209E-02-2.09955072E-02 1.54951018E-01 1.30885999E-01-4.40204908E-02
19  5-4.84385263E-02-3.93616809E-02-4.14572590E-02
20  1-4.88391825E-02 8.93793853E-02 1.13142591E-01-2.75222637E-02 2.21753267E-01
20  2 9.60388352E-02 6.20155356E-02-1.77169299E-02 1.21505173E-01-5.89176964E-04
20  3-8.02587628E-03 1.65221469E-02-1.89214938E-03 1.52454508E-02-3.08202625E-03
20  4-2.20167560E-02-3.71928206E-02-2.04246751E-02-4.40204908E-02 2.02047782E-01
20  5 1.57221270E-01-1.86839557E-02-3.90709769E-02
21  1-7.76208898E-03 2.25094596E-02 9.44958497E-02-3.10495341E-02 1.96158812E-01
21  2 2.39616092E-02 5.16052125E-02-1.99852320E-02 1.07720984E-01-1.68807764E-03
21  3-9.20430246E-03 1.30987154E-02-1.55002131E-03 1.35286480E-02-2.97610199E-03
21  4-3.59184870E-02-3.52762207E-02-4.19524746E-02-4.84385263E-02 1.57221270E-01
21  5 1.33082071E-01-3.86886901E-02-4.20700772E-02
22  1-4.70675214E-02 8.49009422E-02 1.72600184E-01-2.61530385E-02-1.74552058E-01
22  2 9.66945407E-02 9.78317120E-02-1.54497008E-02-9.76867730E-02 8.43577367E-03
22  3-7.63277870E-03 7.17824605E-03-3.32732034E-03-1.76539346E-02 2.90572396E-03
22  4-2.14637640E-02-4.09982771E-02-2.05375685E-02-3.93616809E-02-1.86839557E-02
22  5-3.86886901E-02 1.99197959E-01 1.60377510E-01
23  1-7.99560634E-03 2.13727623E-02 1.53471421E-01-2.25048679E-02-1.60213274E-01
23  2 2.80612436E-02 8.67431592E-02-1.40434206E-02-8.94808700E-02 6.35689942E-03
23  3-8.79252304E-03 5.00209980E-03-3.45903781E-03-1.62112140E-02 2.34115082E-03
23  4-4.01710578E-02-4.30147355E-02-3.77585015E-02-4.14572590E-02-3.90709769E-02
23  5-4.20700772E-02 1.60377510E-01 1.39408387E-01
 ...... END OF RHF CALCULATION ......
 STEP CPU TIME =     0.05 TOTAL CPU TIME =        0.1 (    0.0 MIN)
 TOTAL WALL CLOCK TIME=        0.1 SECONDS, CPU UTILIZATION IS  60.00%

     ----------------------------------------------------------------
     PROPERTY VALUES FOR THE RHF   SELF-CONSISTENT FIELD WAVEFUNCTION
     ----------------------------------------------------------------

          -----------------
          ENERGY COMPONENTS
          -----------------

         WAVEFUNCTION NORMALIZATION =       1.0000000000

                ONE ELECTRON ENERGY =     -78.9174689895
                TWO ELECTRON ENERGY =      25.6990287855
           NUCLEAR REPULSION ENERGY =      13.0326818653
                                      ------------------
                       TOTAL ENERGY =     -40.1857583387

 ELECTRON-ELECTRON POTENTIAL ENERGY =      25.6990287855
  NUCLEUS-ELECTRON POTENTIAL ENERGY =    -118.8815449970
   NUCLEUS-NUCLEUS POTENTIAL ENERGY =      13.0326818653
                                      ------------------
             TOTAL POTENTIAL ENERGY =     -80.1498343462
               TOTAL KINETIC ENERGY =      39.9640760074
                 VIRIAL RATIO (V/T) =       2.0055470401

          ---------------------------------------
          MULLIKEN AND LOWDIN POPULATION ANALYSES
          ---------------------------------------

     ATOMIC MULLIKEN POPULATION IN EACH MOLECULAR ORBITAL

                      1          2          3          4          5

                  2.000000   2.000000   2.000000   2.000000   2.000000

    1             1.998259   1.369786   1.097932   1.094581   1.093928
    2             0.000436   0.170777   0.563632   0.015816   0.071022
    3             0.000397   0.142573   0.254014   0.032287   0.409649
    4             0.000466   0.163790   0.084314   0.441769   0.148279
    5             0.000441   0.153074   0.000108   0.415547   0.277122

               ----- POPULATIONS IN EACH AO -----
                             MULLIKEN      LOWDIN
              1  C  1  S      1.99645     1.98181
              2  C  1  S      0.61653     0.35160
              3  C  1  X      0.67175     0.60947
              4  C  1  Y      0.67416     0.60816
              5  C  1  Z      0.66944     0.60684
              6  C  1  S      0.71721     0.37082
              7  C  1  X      0.41146     0.53036
              8  C  1  Y      0.40835     0.52419
              9  C  1  Z      0.41053     0.53226
             10  C  1 XX      0.01200     0.14663
             11  C  1 YY      0.02666     0.16632
             12  C  1 ZZ      0.01634     0.15054
             13  C  1 XY      0.00996     0.01417
             14  C  1 XZ      0.01299     0.01854
             15  C  1 YZ      0.00066     0.00092
             16  H  2  S      0.51716     0.47551
             17  H  2  S      0.30452     0.35824
             18  H  3  S      0.49723     0.46512
             19  H  3  S      0.34169     0.38352
             20  H  4  S      0.51092     0.47821
             21  H  4  S      0.32770     0.37211
             22  H  5  S      0.50372     0.47274
             23  H  5  S      0.34257     0.38194

          ----- MULLIKEN ATOMIC OVERLAP POPULATIONS -----
          (OFF-DIAGONAL ELEMENTS NEED TO BE MULTIPLIED BY 2)

             1           2           3           4           5

    1    5.1285976
    2    0.3847711   0.5034463
    3    0.3794478  -0.0134659   0.5317800
    4    0.3813419  -0.0239213  -0.0325622   0.5421249
    5    0.3803281  -0.0291463  -0.0262807  -0.0283652   0.5497568

          TOTAL MULLIKEN AND LOWDIN ATOMIC POPULATIONS
       ATOM         MULL.POP.    CHARGE          LOW.POP.     CHARGE
    1 C             6.654486   -0.654486         6.612632   -0.612632
    2 H             0.821684    0.178316         0.833741    0.166259
    3 H             0.838919    0.161081         0.848633    0.151367
    4 H             0.838618    0.161382         0.850320    0.149680
    5 H             0.846293    0.153707         0.854673    0.145327

          -------------------------------
          BOND ORDER AND VALENCE ANALYSIS     BOND ORDER THRESHOLD=0.050
          -------------------------------

                   BOND                       BOND                       BOND
  ATOM PAIR DIST  ORDER      ATOM PAIR DIST  ORDER      ATOM PAIR DIST  ORDER
    1   2  1.093  0.954        1   3  1.149  0.961        1   4  1.118  0.959
    1   5  1.139  0.963

                       TOTAL       BONDED        FREE
      ATOM            VALENCE     VALENCE     VALENCE
    1 C                 3.838       3.838      -0.000
    2 H                 0.934       0.934       0.000
    3 H                 0.941       0.941       0.000
    4 H                 0.933       0.933      -0.000
    5 H                 0.937       0.937       0.000

          ---------------------
          ELECTROSTATIC MOMENTS
          ---------------------

 POINT   1           X           Y           Z (BOHR)    CHARGE
                 4.947739    5.261754    5.614862       -0.00 (A.U.)
         DX          DY          DZ         /D/  (DEBYE)
     0.044928   -0.028738    0.024587    0.058728

          ----------------------------------
          DENSITY BASED MULTIPOLAR EXPANSION
          ----------------------------------
                 13706 GRID POINTS ARE USED
 TOTAL NUMBER OF ELECTRONS =                    10
 TOTAL CHARGE OBTAINED FROM GRID INTEGRAL =  9.90027
 A SCALING FACTOR OF 1.01007 IS APPLIED
 THE EXPANSION POINTS ARE PUNCHED OUT IN THE DAT FILE
  
 ...... END OF PROPERTY EVALUATION ......
 STEP CPU TIME =     0.32 TOTAL CPU TIME =        0.4 (    0.0 MIN)
 TOTAL WALL CLOCK TIME=        0.4 SECONDS, CPU UTILIZATION IS  88.37%

 RUNTYP=MAKEFP IS NOW GENERATING DISTRIBUTED MULTIPOLES FOR ELECTOSTATICS


 PROCESSING $STONE INPUT...
 THE NUMBER OF "BOUNDARY" CORE MOS IS  0
 THE NUMBER OF MOS WITH ZERO OCCUPATION NUMBER IS  0
 TOTAL ELECTRON CHARGE =    -10.0000000000

          ---------------------------------------------
          DISTRIBUTED MULTIPOLAR ANALYSIS (A. J. STONE)
          ---------------------------------------------

 NET CHARGES AT POINTS                    COORDINATES
 ---------------------                    -----------
    #   NAME        CHARGE          X           Y           Z
    1   ZC          6.00000      4.91329     5.25344     5.61249
    2   ZH          1.00000      3.55268     3.72276     5.34792
    3   ZH          1.00000      4.28968     7.33214     5.55579
    4   ZH          1.00000      5.91484     5.08336     7.46442
    5   ZH          1.00000      6.44397     5.00777     4.11960
    6   C          -5.68230      4.91329     5.25344     5.61249
    7   H          -0.74064      3.55268     3.72276     5.34792
    8   H          -0.75167      4.28968     7.33214     5.55579
    9   H          -0.77655      5.91484     5.08336     7.46442
   10   H          -0.78215      6.44397     5.00777     4.11960
   11   BO21       -0.36671      4.23299     4.48810     5.48021
   12   BO31       -0.28495      4.60148     6.29279     5.58414
   13   BO41       -0.32792      5.41406     5.16840     6.53845
   14   BO51       -0.28712      5.67863     5.13061     4.86604

 THE DISTRIBUTED MULTIPOLE ANALYSIS IS FOR THE -ELECTRONIC- PART ONLY
 OF THE FOLLOWING MOMENTS.  ALL QUANTITIES ARE IN ATOMIC UNITS


 FIRST MOMENTS AT POINTS
 -----------------------
 NAME               X             Y             Z
 C             -0.03099      -0.01546       0.00009
 H             -0.02596      -0.03570      -0.00660
 H             -0.00529       0.04280       0.00499
 H              0.02228      -0.00121       0.03870
 H              0.03335      -0.00544      -0.03170
 BO21           0.18847       0.15544       0.02389
 BO31           0.14875      -0.24712       0.03005
 BO41          -0.13025       0.02066      -0.23590
 BO51          -0.18655      -0.00060       0.21299

 SECOND MOMENTS AT POINTS
 ------------------------
 NAME           XX         YY         ZZ         XY         XZ         YZ
 C          -3.79859   -3.79643   -3.79509    0.01032    0.00348    0.00477
 H          -0.45987   -0.46317   -0.46257    0.00118    0.00008   -0.00025
 H          -0.49165   -0.49340   -0.49234   -0.00343    0.00172   -0.00274
 H          -0.50836   -0.50825   -0.50635   -0.00053    0.00063   -0.00106
 H          -0.51908   -0.51950   -0.51862   -0.00004   -0.00066    0.00008
 BO21       -0.31954   -0.31824   -0.31936    0.00080   -0.00001    0.00046
 BO31       -0.18774   -0.21216   -0.17199    0.00191    0.00141   -0.00083
 BO41       -0.26963   -0.26713   -0.27939    0.01432    0.00511    0.00293
 BO51       -0.20624   -0.21337   -0.20191    0.01624    0.01563    0.00151

 THIRD MOMENTS AT POINTS
 -----------------------
 NAME           XXX        YYY        ZZZ        XXY        XXZ        XYY
                YYZ        XZZ        YZZ        XYZ
 C          -0.09668   -0.18330   -0.06067    0.04058    0.05480    0.11249
             0.02617   -0.18000    0.00668    0.00595
 H          -0.03706   -0.05394   -0.01060   -0.01559   -0.00298   -0.01024
            -0.00305   -0.01342   -0.01892    0.00053
 H          -0.00625    0.06056    0.01008    0.02116    0.00368    0.00152
             0.00458   -0.00181    0.02216   -0.00084
 H           0.03486   -0.00154    0.05479   -0.00025    0.01876    0.01188
             0.02051    0.00828    0.00047    0.00052
 H           0.05055   -0.00882   -0.04783   -0.00239   -0.01359    0.01793
            -0.01702    0.01452   -0.00239   -0.00056
 BO21        0.69454    0.55392    0.08311    0.18599    0.02797    0.23202
             0.02766    0.23112    0.18388    0.00029
 BO31        0.61971   -0.94954    0.15237   -0.32221    0.03913    0.19768
             0.04278    0.23228   -0.31878   -0.00052
 BO41       -0.51338    0.05559   -0.89777    0.01263   -0.30068   -0.17957
            -0.30018   -0.16944    0.02289   -0.00156
 BO51       -0.72756   -0.03874    0.86627   -0.02075    0.28609   -0.25402
             0.27641   -0.22682   -0.01076   -0.00398
 STEP CPU TIME =     0.00 TOTAL CPU TIME =        0.4 (    0.0 MIN)
 TOTAL WALL CLOCK TIME=        0.5 SECONDS, CPU UTILIZATION IS  82.61%

 RUNTYP=MAKEFP IS NOW GENERATING LOCALIZED ORBITALS
               AND DISTRIBUTED POLARIZABILITY TENSORS
               AND DATA FOR DISPERSION.


          -------------------------
          BOYS ORBITAL LOCALIZATION
          -------------------------
          S.F.BOYS, IN "QUANTUM THEORY OF ATOMS, MOLECULES, AND SOLIDS"
          P.O.LOWDIN, ED. ACADEMIC PRESS, NY, 1966 PP253-266.

          THIS LOCALIZATION REQUIRES      1549 WORDS OF MEMORY.
          THIS LOCALIZATION HAS   5 ORBITALS, OF WHICH   1 ARE FROZEN.

          THE INITIAL LOCALIZATION SUM IS      4.657474 DEBYE**2
          BOYS ITERATION  10 ORBITAL CHANGE=    2.6553233369E-08
          LOCALIZATION CONVERGED IN  12 ITERATIONS
            THE FINAL LOCALIZATION SUM IS     52.467177 DEBYE**2

          THE BOYS LOCALIZED ORBITALS ARE

                      1          2          3          4          5

    1  C  1  S    0.995723   0.094203   0.102363  -0.092378   0.096250
    2  C  1  S    0.027711  -0.172342  -0.194465   0.166999  -0.176866
    3  C  1  X    0.000102  -0.166792   0.266115   0.258248   0.138235
    4  C  1  Y   -0.000011   0.042075   0.255355  -0.040016  -0.338299
    5  C  1  Z    0.000017  -0.333225   0.043768  -0.264906   0.022341
    6  C  1  S   -0.012471  -0.184820  -0.191301   0.187378  -0.196133
    7  C  1  X   -0.000496  -0.091603   0.141423   0.146618   0.081874
    8  C  1  Y   -0.000015   0.026420   0.130323  -0.023019  -0.189595
    9  C  1  Z   -0.000084  -0.182508   0.021052  -0.148328   0.014011
   10  C  1 XX   -0.001934   0.000047  -0.009176   0.013627   0.006576
   11  C  1 YY   -0.001900   0.010408  -0.014879  -0.009877  -0.031360
   12  C  1 ZZ   -0.001980  -0.025480   0.010096   0.011515   0.009857
   13  C  1 XY    0.000085   0.002361  -0.026770  -0.004575   0.014530
   14  C  1 XZ    0.000036  -0.023068  -0.004313  -0.026624  -0.000408
   15  C  1 YZ    0.000015   0.004394  -0.004985   0.004646   0.001227
   16  H  2  S   -0.000052   0.016448  -0.318455  -0.015853   0.019459
   17  H  2  S    0.002229   0.049734  -0.218557  -0.055994   0.035270
   18  H  3  S    0.000041   0.016210   0.020284  -0.016280  -0.312257
   19  H  3  S    0.002142   0.060685   0.036988  -0.053925  -0.239749
   20  H  4  S    0.000077  -0.316272   0.020146  -0.015830   0.018421
   21  H  4  S    0.002408  -0.238970   0.050573  -0.056144   0.060984
   22  H  5  S    0.000100   0.016186   0.020046   0.313986   0.018657
   23  H  5  S    0.002335   0.056271   0.057068   0.245619   0.054283
 ...... END OF ORBITAL LOCALIZATION ......
 STEP CPU TIME =     0.00 TOTAL CPU TIME =        0.4 (    0.0 MIN)
 TOTAL WALL CLOCK TIME=        0.5 SECONDS, CPU UTILIZATION IS  82.61%
 NORMALIZED MULL. POP. FOR EACH LMO
   1   0.999 0.000 0.000 0.000 0.000
   2   0.581-0.008-0.011 0.447-0.009
   3   0.587 0.434-0.004-0.008-0.009
   4   0.579-0.010-0.009-0.010 0.450
   5   0.581-0.005 0.443-0.011-0.009

 ATOMS ARE ASSIGNED TO THE LMOS BASED ON THEIR MULLIKEN POPULATION.
 (MULLIKEN POP. THRESHOLD(VMTOL)=0.150 WAS USED)
 ORBITAL   1 BELONGS TO ATOM(S)   1
 ORBITAL   2 BELONGS TO ATOM(S)   1  4
 ORBITAL   3 BELONGS TO ATOM(S)   1  2
 ORBITAL   4 BELONGS TO ATOM(S)   1  5
 ORBITAL   5 BELONGS TO ATOM(S)   1  3
 
  LCD DIPOLES 
 
 LMO    XP        YP        ZP        MUX       MUY       MUZ     TOTAL
   1  4.91330   5.25344   5.61249  -0.00008   0.00002  -0.00002   0.00008
   2  5.57300   5.11951   6.86497  -0.80796   0.24851  -1.65988   1.86273
   3  3.96510   4.25180   5.44136   1.36182   1.20121   0.19746   1.82659
   4  5.93287   5.09126   4.60240  -1.29245   0.20000   1.34026   1.87262
   5  4.44734   6.62297   5.55527   0.78361  -1.67848   0.14677   1.85819

     ------------------------------
     CPHF RESPONSE SOLUTION OPTIONS
     ------------------------------
     POLAR  =       F     NWORD  =       0
     CPHF   =AO      

     --------------------------------------------
     PARTIAL TWO ELECTRON INTEGRAL TRANSFORMATION
     --------------------------------------------

 NUMBER OF CORE MOLECULAR ORBITALS     =    0
 NUMBER OF OCCUPIED MOLECULAR ORBITALS =    5
 TOTAL NUMBER OF MOLECULAR ORBITALS    =   23
 TOTAL NUMBER OF ATOMIC ORBITALS       =   23
 THRESHOLD FOR KEEPING TRANSFORMED 2E- INTEGRALS = 1.000E-09
 AO INTEGRALS WILL BE CALCULATED IN DIRECT MODE...

 PLAN A: REQUIREMENTS FOR FULLY IN-MEMORY TRANSFORMATION:
 # OF WORDS AVAILABLE =            500000000
 # OF WORDS NEEDED    =               139985

 CHOOSING IN MEMORY PARTIAL TRANSFORMATION...
 DIRECT TRANSFORMATION SKIPS AO INTEGRAL STORAGE ON DISK.
 TOTAL NUMBER OF TRANSFORMED 2E- INTEGRALS KEPT =         8130
 ... END OF INTEGRAL TRANSFORMATION ...
 STEP CPU TIME =     0.01 TOTAL CPU TIME =        0.4 (    0.0 MIN)
 TOTAL WALL CLOCK TIME=        0.5 SECONDS, CPU UTILIZATION IS  81.25%

     -------------------------------------------
     COUPLED-PERTURBED CLOSED SHELL HARTREE-FOCK
     -------------------------------------------
 THE CPHF HAS      90 INDEPENDENT ORBITAL ROTATIONS.
 CHOOSING OUT OF MEMORY CPHF ALGORITHM,
 -A- WILL BE FORMED IN    1 SLICES OF     90 COLUMNS.
         -B- WILL USE      1926 WORDS,
 -A- AND -U- WILL USE     40098 WORDS,
            THERE ARE 500000000 WORDS AVAILABLE.
 IN MEMORY FORMATION OF -A- WOULD REQUIRE         0 WORDS
        TIME FOR   -B-  =        0.000
        TIME FOR   -A-  =        0.000
 BICONJUGATE GRADIENT SOLVER     CONV. TOLERANCE=1.00E-05
 ITER   1 IMPROVED    3 RESPONSES, MAX RESIDUE=  4.5716725E-03
 ITER   2 IMPROVED    3 RESPONSES, MAX RESIDUE=  1.0590431E-03
 ITER   3 IMPROVED    3 RESPONSES, MAX RESIDUE=  5.4872863E-05
 ITER   4 IMPROVED    3 RESPONSES, MAX RESIDUE=  4.0813737E-06
        TIME FOR  -U-   =        0.000
 SOLVING FOR ALL   3 UNIQUE RESPONSES TOOK   12 ITERATIONS.
 CONJUGATE GRADIENT SOLVER MADE  13 READS OF THE EXTERNALLY STORED -A-

          -----------------------------------
           LOCALIZED ALPHA POLARIZABILITIES 
                 IN ANGSTROMS**3            
          -----------------------------------

           CORE ALPHA POLARIZABILITY TENSOR 
                      UX             UY             UZ
           UX     0.000563184    0.000019241    0.000015899
           UY     0.000008913    0.000570177   -0.000020146
           UZ     0.000007413   -0.000013693    0.000509594

           MEAN ALPHA POLARIZABILITY =     0.000547651


  LMO ALPHA POLARIZABILITY TENSOR FOR BOND BETWEEN ATOM  1 AND ATOM  4
                      UX             UY             UZ
           UX     0.372517234   -0.026499293    0.348275390
           UY    -0.036867663    0.209143850   -0.075579789
           UZ     0.364990519   -0.060850573    0.856400591

           MEAN ALPHA POLARIZABILITY =     0.479353892


  LMO ALPHA POLARIZABILITY TENSOR FOR BOND BETWEEN ATOM  1 AND ATOM  2
                      UX             UY             UZ
           UX     0.532539940    0.349814938    0.059876941
           UY     0.329684853    0.617639672    0.067608913
           UZ     0.054523870    0.065340849    0.235599118

           MEAN ALPHA POLARIZABILITY =     0.461926243


  LMO ALPHA POLARIZABILITY TENSOR FOR BOND BETWEEN ATOM  1 AND ATOM  5
                      UX             UY             UZ
           UX     0.646802811   -0.070974464   -0.449270263
           UY    -0.077369031    0.215171701    0.083599123
           UZ    -0.462701727    0.080108535    0.632919709

           MEAN ALPHA POLARIZABILITY =     0.498298074


  LMO ALPHA POLARIZABILITY TENSOR FOR BOND BETWEEN ATOM  1 AND ATOM  3
                      UX             UY             UZ
           UX     0.303416278   -0.255885916    0.008529435
           UY    -0.219636105    1.006736308   -0.013406982
           UZ     0.009879555   -0.021952697    0.214992542

           MEAN ALPHA POLARIZABILITY =     0.508381709


               -----------------------------------
                TOTAL ALPHA POLARIZABILITY TENSOR 
               -----------------------------------
                      UX             UY             UZ
           UX     1.855839447   -0.003525494   -0.032572598
           UY    -0.004179033    2.049261708    0.062201118
           UZ    -0.033300370    0.062632421    1.940421554

           MEAN ALPHA POLARIZABILITY =     1.948507570


          -----------------------------------------------
           LOCALIZED ALPHA POLARIZABILITY TENSORS FOR 
           LONE PAIRS AND BONDS PROJECTED ONTO THE Z-AXIS 
          -----------------------------------------------


  LMO ALPHA POLARIZABILITY TENSOR FOR BOND BETWEEN ATOM  1 AND ATOM  4
                      UX             UY             UZ
           UX     0.203263990    0.000669629    0.018117638
           UY     0.001430214    0.182814846    0.013487902
           UZ    -0.002054036   -0.000525431    1.051982839

           MEAN ALPHA POLARIZABILITY =     0.479353892


  LMO ALPHA POLARIZABILITY TENSOR FOR BOND BETWEEN ATOM  1 AND ATOM  2
                      UX             UY             UZ
           UX     0.232694408    0.001141970    0.007557344
           UY     0.001036520    0.224508642    0.004459952
           UZ    -0.012726389   -0.000791606    0.928575680

           MEAN ALPHA POLARIZABILITY =     0.461926243


  LMO ALPHA POLARIZABILITY TENSOR FOR BOND BETWEEN ATOM  1 AND ATOM  5
                      UX             UY             UZ
           UX     0.202800224   -0.003936915    0.012272729
           UY    -0.004356828    0.182685979   -0.010698575
           UZ     0.003799607    0.002010036    1.109408018

           MEAN ALPHA POLARIZABILITY =     0.498298074


  LMO ALPHA POLARIZABILITY TENSOR FOR BOND BETWEEN ATOM  1 AND ATOM  3
                      UX             UY             UZ
           UX     0.230610954    0.003713902   -0.023153189
           UY     0.003498500    0.214559882   -0.001270223
           UZ     0.013114615    0.007303041    1.079974292

           MEAN ALPHA POLARIZABILITY =     0.508381709
 .... DONE WITH STATIC POLARIZABILITY ....
 STEP CPU TIME =     0.00 TOTAL CPU TIME =        0.4 (    0.0 MIN)
 TOTAL WALL CLOCK TIME=        0.5 SECONDS, CPU UTILIZATION IS  79.59%
 USING   GMRES    SOLVER FOR LINEAR SYSTEM OF SIZE        90

 A TOTAL OF  12 IMAGINARY FREQUENCY POLARIZABILITIES ARE TO BE FOUND
 ALLOCATING MEMORY FOR GMRES SOLVER
 CALCULATING H2*H1 DIAGONAL
 WIDTH=                    90 NROT=                    90

 COMPUTING DYNAMIC POLARIZABILTY FOR IMAGINARY FREQUENCY   0.0027916I (A.U.)
 GMRES CONVERGED IN                     14 ITERATIONS
 GMRES CONVERGED IN                     14 ITERATIONS
 GMRES CONVERGED IN                     14 ITERATIONS

          -----------------------------------
           LOCALIZED ALPHA POLARIZABILITIES 
                 IN ANGSTROMS**3            
          -----------------------------------

           CORE ALPHA POLARIZABILITY TENSOR 
                      UX             UY             UZ
           UX     0.000535697    0.000003678    0.000001895
           UY    -0.000000593    0.000559424   -0.000001771
           UZ     0.000001210   -0.000000502    0.000516974

           MEAN ALPHA POLARIZABILITY =     0.000537365


  LMO ALPHA POLARIZABILITY TENSOR FOR BOND BETWEEN ATOM  1 AND ATOM  4
                      UX             UY             UZ
           UX     0.372303512   -0.026725210    0.347811351
           UY    -0.037034360    0.209153770   -0.075269479
           UZ     0.365188753   -0.060602062    0.856693907

           MEAN ALPHA POLARIZABILITY =     0.479383730


  LMO ALPHA POLARIZABILITY TENSOR FOR BOND BETWEEN ATOM  1 AND ATOM  2
                      UX             UY             UZ
           UX     0.532283888    0.349301372    0.059584402
           UY     0.329788632    0.617800490    0.068029796
           UZ     0.054394621    0.065682197    0.235670465

           MEAN ALPHA POLARIZABILITY =     0.461918281


  LMO ALPHA POLARIZABILITY TENSOR FOR BOND BETWEEN ATOM  1 AND ATOM  5
                      UX             UY             UZ
           UX     0.646499953   -0.071136387   -0.449204926
           UY    -0.077546919    0.215193442    0.083948337
           UZ    -0.462865477    0.080339912    0.633021139

           MEAN ALPHA POLARIZABILITY =     0.498238178


  LMO ALPHA POLARIZABILITY TENSOR FOR BOND BETWEEN ATOM  1 AND ATOM  3
                      UX             UY             UZ
           UX     0.303409383   -0.256053448    0.008302543
           UY    -0.219816755    1.007152483   -0.013079220
           UZ     0.009776157   -0.021791881    0.215043600

           MEAN ALPHA POLARIZABILITY =     0.508535155


               -----------------------------------
                TOTAL ALPHA POLARIZABILITY TENSOR 
               -----------------------------------
                      UX             UY             UZ
           UX     1.855032432   -0.004609995   -0.033504735
           UY    -0.004609995    2.049859608    0.063627663
           UZ    -0.033504735    0.063627663    1.940946085

           MEAN ALPHA POLARIZABILITY =     1.948612709

 COMPUTING DYNAMIC POLARIZABILTY FOR IMAGINARY FREQUENCY   0.0151066I (A.U.)
 GMRES CONVERGED IN                      9 ITERATIONS
 GMRES CONVERGED IN                      9 ITERATIONS
 GMRES CONVERGED IN                      9 ITERATIONS

          -----------------------------------
           LOCALIZED ALPHA POLARIZABILITIES 
                 IN ANGSTROMS**3            
          -----------------------------------

           CORE ALPHA POLARIZABILITY TENSOR 
                      UX             UY             UZ
           UX     0.000535555    0.000003692    0.000001897
           UY    -0.000000572    0.000559291   -0.000001756
           UZ     0.000001213   -0.000000490    0.000516857

           MEAN ALPHA POLARIZABILITY =     0.000537234


  LMO ALPHA POLARIZABILITY TENSOR FOR BOND BETWEEN ATOM  1 AND ATOM  4
                      UX             UY             UZ
           UX     0.372067036   -0.026696568    0.347529105
           UY    -0.036985259    0.209054786   -0.075191837
           UZ     0.364878415   -0.060552918    0.856032481

           MEAN ALPHA POLARIZABILITY =     0.479051434


  LMO ALPHA POLARIZABILITY TENSOR FOR BOND BETWEEN ATOM  1 AND ATOM  2
                      UX             UY             UZ
           UX     0.531928216    0.349003574    0.059538667
           UY     0.329528934    0.617396451    0.067975327
           UZ     0.054359003    0.065632527    0.235557513

           MEAN ALPHA POLARIZABILITY =     0.461627393


  LMO ALPHA POLARIZABILITY TENSOR FOR BOND BETWEEN ATOM  1 AND ATOM  5
                      UX             UY             UZ
           UX     0.646017745   -0.071067430   -0.448816337
           UY    -0.077466684    0.215089665    0.083873007
           UZ    -0.462455959    0.080270937    0.632537494

           MEAN ALPHA POLARIZABILITY =     0.497881635


  LMO ALPHA POLARIZABILITY TENSOR FOR BOND BETWEEN ATOM  1 AND ATOM  3
                      UX             UY             UZ
           UX     0.303234833   -0.255789483    0.008298569
           UY    -0.219622633    1.006364662   -0.013068615
           UZ     0.009769229   -0.021763931    0.214933614

           MEAN ALPHA POLARIZABILITY =     0.508177703


               -----------------------------------
                TOTAL ALPHA POLARIZABILITY TENSOR 
               -----------------------------------
                      UX             UY             UZ
           UX     1.853783385   -0.004546214   -0.033448099
           UY    -0.004546214    2.048464856    0.063586125
           UZ    -0.033448099    0.063586125    1.939577959

           MEAN ALPHA POLARIZABILITY =     1.947275400

 COMPUTING DYNAMIC POLARIZABILTY FOR IMAGINARY FREQUENCY   0.0390017I (A.U.)
 GMRES CONVERGED IN                     10 ITERATIONS
 GMRES CONVERGED IN                     10 ITERATIONS
 GMRES CONVERGED IN                     10 ITERATIONS

          -----------------------------------
           LOCALIZED ALPHA POLARIZABILITIES 
                 IN ANGSTROMS**3            
          -----------------------------------

           CORE ALPHA POLARIZABILITY TENSOR 
                      UX             UY             UZ
           UX     0.000534732    0.000003775    0.000001905
           UY    -0.000000447    0.000558517   -0.000001673
           UZ     0.000001228   -0.000000419    0.000516174

           MEAN ALPHA POLARIZABILITY =     0.000536474


  LMO ALPHA POLARIZABILITY TENSOR FOR BOND BETWEEN ATOM  1 AND ATOM  4
                      UX             UY             UZ
           UX     0.370687089   -0.026529679    0.345882567
           UY    -0.036699487    0.208476964   -0.074739667
           UZ     0.363068431   -0.060266343    0.852174450

           MEAN ALPHA POLARIZABILITY =     0.477112834


  LMO ALPHA POLARIZABILITY TENSOR FOR BOND BETWEEN ATOM  1 AND ATOM  2
                      UX             UY             UZ
           UX     0.529852792    0.347266735    0.059271774
           UY     0.328013507    0.615037816    0.067657471
           UZ     0.054150889    0.065342539    0.234897820

           MEAN ALPHA POLARIZABILITY =     0.459929476


  LMO ALPHA POLARIZABILITY TENSOR FOR BOND BETWEEN ATOM  1 AND ATOM  5
                      UX             UY             UZ
           UX     0.643205052   -0.070665463   -0.446550173
           UY    -0.076999151    0.214483847    0.083433861
           UZ    -0.460067975    0.079868733    0.629716673

           MEAN ALPHA POLARIZABILITY =     0.495801857


  LMO ALPHA POLARIZABILITY TENSOR FOR BOND BETWEEN ATOM  1 AND ATOM  3
                      UX             UY             UZ
           UX     0.302216327   -0.254251640    0.008275369
           UY    -0.218490695    1.001769259   -0.013006792
           UZ     0.009728869   -0.021601310    0.214291625

           MEAN ALPHA POLARIZABILITY =     0.506092404


               -----------------------------------
                TOTAL ALPHA POLARIZABILITY TENSOR 
               -----------------------------------
                      UX             UY             UZ
           UX     1.846495992   -0.004176272   -0.033118557
           UY    -0.004176272    2.040326403    0.063343200
           UZ    -0.033118557    0.063343200    1.931596742

           MEAN ALPHA POLARIZABILITY =     1.939473046

 COMPUTING DYNAMIC POLARIZABILTY FOR IMAGINARY FREQUENCY   0.0779961I (A.U.)
 GMRES CONVERGED IN                     11 ITERATIONS
 GMRES CONVERGED IN                     11 ITERATIONS
 GMRES CONVERGED IN                     11 ITERATIONS

          -----------------------------------
           LOCALIZED ALPHA POLARIZABILITIES 
                 IN ANGSTROMS**3            
          -----------------------------------

           CORE ALPHA POLARIZABILITY TENSOR 
                      UX             UY             UZ
           UX     0.000531919    0.000004054    0.000001932
           UY    -0.000000027    0.000555864   -0.000001389
           UZ     0.000001281   -0.000000179    0.000513845

           MEAN ALPHA POLARIZABILITY =     0.000533876


  LMO ALPHA POLARIZABILITY TENSOR FOR BOND BETWEEN ATOM  1 AND ATOM  4
                      UX             UY             UZ
           UX     0.365913508   -0.025955699    0.340193434
           UY    -0.035720814    0.206475376   -0.073187392
           UZ     0.356820250   -0.059277692    0.838851104

           MEAN ALPHA POLARIZABILITY =     0.470413330


  LMO ALPHA POLARIZABILITY TENSOR FOR BOND BETWEEN ATOM  1 AND ATOM  2
                      UX             UY             UZ
           UX     0.522674547    0.341271161    0.058348385
           UY     0.322771784    0.606867297    0.066557920
           UZ     0.053427478    0.064337592    0.232608309

           MEAN ALPHA POLARIZABILITY =     0.454050051


  LMO ALPHA POLARIZABILITY TENSOR FOR BOND BETWEEN ATOM  1 AND ATOM  5
                      UX             UY             UZ
           UX     0.633491327   -0.069280658   -0.438729894
           UY    -0.075390689    0.212385060    0.081920568
           UZ    -0.451830342    0.078481300    0.619978207

           MEAN ALPHA POLARIZABILITY =     0.488618198


  LMO ALPHA POLARIZABILITY TENSOR FOR BOND BETWEEN ATOM  1 AND ATOM  3
                      UX             UY             UZ
           UX     0.298693983   -0.248964863    0.008194938
           UY    -0.214586261    0.985897774   -0.012793728
           UZ     0.009590128   -0.021045042    0.212068576

           MEAN ALPHA POLARIZABILITY =     0.498886778


               -----------------------------------
                TOTAL ALPHA POLARIZABILITY TENSOR 
               -----------------------------------
                      UX             UY             UZ
           UX     1.821305284   -0.002926005   -0.031991206
           UY    -0.002926005    2.012181371    0.062495979
           UZ    -0.031991206    0.062495979    1.904020041

           MEAN ALPHA POLARIZABILITY =     1.912502232

 COMPUTING DYNAMIC POLARIZABILTY FOR IMAGINARY FREQUENCY   0.1386505I (A.U.)
 GMRES CONVERGED IN                     11 ITERATIONS
 GMRES CONVERGED IN                     11 ITERATIONS
 GMRES CONVERGED IN                     11 ITERATIONS

          -----------------------------------
           LOCALIZED ALPHA POLARIZABILITIES 
                 IN ANGSTROMS**3            
          -----------------------------------

           CORE ALPHA POLARIZABILITY TENSOR 
                      UX             UY             UZ
           UX     0.000524547    0.000004753    0.000001993
           UY     0.000001041    0.000548846   -0.000000656
           UZ     0.000001407    0.000000439    0.000507763

           MEAN ALPHA POLARIZABILITY =     0.000527052


  LMO ALPHA POLARIZABILITY TENSOR FOR BOND BETWEEN ATOM  1 AND ATOM  4
                      UX             UY             UZ
           UX     0.352944715   -0.024422448    0.324790761
           UY    -0.033138751    0.201014725   -0.069061800
           UZ     0.339948666   -0.056612484    0.802833283

           MEAN ALPHA POLARIZABILITY =     0.452264241


  LMO ALPHA POLARIZABILITY TENSOR FOR BOND BETWEEN ATOM  1 AND ATOM  2
                      UX             UY             UZ
           UX     0.503182212    0.325082490    0.055838916
           UY     0.308538295    0.584583271    0.063571358
           UZ     0.051435576    0.061594317    0.226329068

           MEAN ALPHA POLARIZABILITY =     0.438031517


  LMO ALPHA POLARIZABILITY TENSOR FOR BOND BETWEEN ATOM  1 AND ATOM  5
                      UX             UY             UZ
           UX     0.607227688   -0.065563169   -0.417633814
           UY    -0.071090082    0.206657753    0.077854687
           UZ    -0.429632535    0.074742416    0.593674622

           MEAN ALPHA POLARIZABILITY =     0.469186688


  LMO ALPHA POLARIZABILITY TENSOR FOR BOND BETWEEN ATOM  1 AND ATOM  3
                      UX             UY             UZ
           UX     0.289129846   -0.234858753    0.007974930
           UY    -0.204067629    0.942978970   -0.012221105
           UZ     0.009219673   -0.019582204    0.206010798

           MEAN ALPHA POLARIZABILITY =     0.479373205


               -----------------------------------
                TOTAL ALPHA POLARIZABILITY TENSOR 
               -----------------------------------
                      UX             UY             UZ
           UX     1.753009009    0.000242874   -0.029027214
           UY     0.000242874    1.935783564    0.060142483
           UZ    -0.029027214    0.060142483    1.829355534

           MEAN ALPHA POLARIZABILITY =     1.839382702

 COMPUTING DYNAMIC POLARIZABILTY FOR IMAGINARY FREQUENCY   0.2332227I (A.U.)
 GMRES CONVERGED IN                     11 ITERATIONS
 GMRES CONVERGED IN                     11 ITERATIONS
 GMRES CONVERGED IN                     11 ITERATIONS

          -----------------------------------
           LOCALIZED ALPHA POLARIZABILITIES 
                 IN ANGSTROMS**3            
          -----------------------------------

           CORE ALPHA POLARIZABILITY TENSOR 
                      UX             UY             UZ
           UX     0.000509064    0.000006056    0.000002071
           UY     0.000003102    0.000533765    0.000000820
           UZ     0.000001618    0.000001685    0.000495124

           MEAN ALPHA POLARIZABILITY =     0.000512651


  LMO ALPHA POLARIZABILITY TENSOR FOR BOND BETWEEN ATOM  1 AND ATOM  4
                      UX             UY             UZ
           UX     0.323030192   -0.021032520    0.289581899
           UY    -0.027601800    0.188273744   -0.060035002
           UZ     0.301630994   -0.050576793    0.720783098

           MEAN ALPHA POLARIZABILITY =     0.410695678


  LMO ALPHA POLARIZABILITY TENSOR FOR BOND BETWEEN ATOM  1 AND ATOM  2
                      UX             UY             UZ
           UX     0.458276918    0.288320619    0.050050293
           UY     0.275791251    0.532741763    0.056697281
           UZ     0.046704577    0.055209848    0.211505409

           MEAN ALPHA POLARIZABILITY =     0.400841363


  LMO ALPHA POLARIZABILITY TENSOR FOR BOND BETWEEN ATOM  1 AND ATOM  5
                      UX             UY             UZ
           UX     0.547360244   -0.057239241   -0.369832016
           UY    -0.061555137    0.193290117    0.068727053
           UZ    -0.379473608    0.066288410    0.533877750

           MEAN ALPHA POLARIZABILITY =     0.424842704


  LMO ALPHA POLARIZABILITY TENSOR FOR BOND BETWEEN ATOM  1 AND ATOM  3
                      UX             UY             UZ
           UX     0.267070706   -0.203731970    0.007457379
           UY    -0.180314472    0.845151121   -0.010934559
           UZ     0.008396046   -0.016467555    0.191925996

           MEAN ALPHA POLARIZABILITY =     0.434715941


               -----------------------------------
                TOTAL ALPHA POLARIZABILITY TENSOR 
               -----------------------------------
                      UX             UY             UZ
           UX     1.596247125    0.006322944   -0.022740373
           UY     0.006322944    1.759990509    0.054455595
           UZ    -0.022740373    0.054455595    1.658587377

           MEAN ALPHA POLARIZABILITY =     1.671608337

 COMPUTING DYNAMIC POLARIZABILTY FOR IMAGINARY FREQUENCY   0.3858973I (A.U.)
 GMRES CONVERGED IN                     11 ITERATIONS
 GMRES CONVERGED IN                     11 ITERATIONS
 GMRES CONVERGED IN                     11 ITERATIONS

          -----------------------------------
           LOCALIZED ALPHA POLARIZABILITIES 
                 IN ANGSTROMS**3            
          -----------------------------------

           CORE ALPHA POLARIZABILITY TENSOR 
                      UX             UY             UZ
           UX     0.000485518    0.000007466    0.000002018
           UY     0.000005655    0.000509575    0.000002876
           UZ     0.000001757    0.000003411    0.000476434

           MEAN ALPHA POLARIZABILITY =     0.000490509


  LMO ALPHA POLARIZABILITY TENSOR FOR BOND BETWEEN ATOM  1 AND ATOM  4
                      UX             UY             UZ
           UX     0.265756635   -0.015125105    0.223652108
           UY    -0.018559872    0.163126620   -0.044494016
           UZ     0.230834974   -0.039431418    0.568028982

           MEAN ALPHA POLARIZABILITY =     0.332304079


  LMO ALPHA POLARIZABILITY TENSOR FOR BOND BETWEEN ATOM  1 AND ATOM  2
                      UX             UY             UZ
           UX     0.372568882    0.220428153    0.039015865
           UY     0.213832879    0.432154587    0.043696229
           UZ     0.037221515    0.042906149    0.181698269

           MEAN ALPHA POLARIZABILITY =     0.328807246


  LMO ALPHA POLARIZABILITY TENSOR FOR BOND BETWEEN ATOM  1 AND ATOM  5
                      UX             UY             UZ
           UX     0.435620619   -0.042307702   -0.281915901
           UY    -0.044801668    0.166922872    0.052218205
           UZ    -0.287790961    0.050778347    0.422980530

           MEAN ALPHA POLARIZABILITY =     0.341841340


  LMO ALPHA POLARIZABILITY TENSOR FOR BOND BETWEEN ATOM  1 AND ATOM  3
                      UX             UY             UZ
           UX     0.224592135   -0.149484569    0.006409673
           UY    -0.136958753    0.662918072   -0.008600148
           UZ     0.006896477   -0.011433343    0.164409775

           MEAN ALPHA POLARIZABILITY =     0.350639994


               -----------------------------------
                TOTAL ALPHA POLARIZABILITY TENSOR 
               -----------------------------------
                      UX             UY             UZ
           UX     1.299023788    0.013518242   -0.012836237
           UY     0.013518242    1.425631726    0.042823146
           UZ    -0.012836237    0.042823146    1.337593991

           MEAN ALPHA POLARIZABILITY =     1.354083168

 COMPUTING DYNAMIC POLARIZABILTY FOR IMAGINARY FREQUENCY   0.6491140I (A.U.)
 GMRES CONVERGED IN                     10 ITERATIONS
 GMRES CONVERGED IN                     10 ITERATIONS
 GMRES CONVERGED IN                     10 ITERATIONS

          -----------------------------------
           LOCALIZED ALPHA POLARIZABILITIES 
                 IN ANGSTROMS**3            
          -----------------------------------

           CORE ALPHA POLARIZABILITY TENSOR 
                      UX             UY             UZ
           UX     0.000466781    0.000007501    0.000001635
           UY     0.000006778    0.000487413    0.000004293
           UZ     0.000001540    0.000004551    0.000462966

           MEAN ALPHA POLARIZABILITY =     0.000472386


  LMO ALPHA POLARIZABILITY TENSOR FOR BOND BETWEEN ATOM  1 AND ATOM  4
                      UX             UY             UZ
           UX     0.182562867   -0.007990338    0.132937629
           UY    -0.008824453    0.123661554   -0.025460956
           UZ     0.135491850   -0.024165594    0.358255632

           MEAN ALPHA POLARIZABILITY =     0.221493351


  LMO ALPHA POLARIZABILITY TENSOR FOR BOND BETWEEN ATOM  1 AND ATOM  2
                      UX             UY             UZ
           UX     0.249040493    0.129183159    0.023436825
           UY     0.127704218    0.284873879    0.025717892
           UZ     0.022985079    0.025510587    0.134403843

           MEAN ALPHA POLARIZABILITY =     0.222772738


  LMO ALPHA POLARIZABILITY TENSOR FOR BOND BETWEEN ATOM  1 AND ATOM  5
                      UX             UY             UZ
           UX     0.280852137   -0.023242715   -0.164417171
           UY    -0.024120975    0.125750975    0.030563667
           UZ    -0.166592194    0.029998200    0.271265320

           MEAN ALPHA POLARIZABILITY =     0.225956144


  LMO ALPHA POLARIZABILITY TENSOR FOR BOND BETWEEN ATOM  1 AND ATOM  3
                      UX             UY             UZ
           UX     0.161052254   -0.082956636    0.004657780
           UY    -0.079764598    0.413023840   -0.005481081
           UZ     0.004730424   -0.006003928    0.122333597

           MEAN ALPHA POLARIZABILITY =     0.232136564


               -----------------------------------
                TOTAL ALPHA POLARIZABILITY TENSOR 
               -----------------------------------
                      UX             UY             UZ
           UX     0.873974532    0.015000971   -0.003383300
           UY     0.015000971    0.947797661    0.025343815
           UZ    -0.003383300    0.025343815    0.886721357

           MEAN ALPHA POLARIZABILITY =     0.902831183

 COMPUTING DYNAMIC POLARIZABILTY FOR IMAGINARY FREQUENCY   1.1539038I (A.U.)
 GMRES CONVERGED IN                      9 ITERATIONS
 GMRES CONVERGED IN                      9 ITERATIONS
 GMRES CONVERGED IN                      9 ITERATIONS

          -----------------------------------
           LOCALIZED ALPHA POLARIZABILITIES 
                 IN ANGSTROMS**3            
          -----------------------------------

           CORE ALPHA POLARIZABILITY TENSOR 
                      UX             UY             UZ
           UX     0.000470227    0.000005910    0.000001122
           UY     0.000005764    0.000485648    0.000004180
           UZ     0.000001110    0.000004312    0.000468812

           MEAN ALPHA POLARIZABILITY =     0.000474896


  LMO ALPHA POLARIZABILITY TENSOR FOR BOND BETWEEN ATOM  1 AND ATOM  4
                      UX             UY             UZ
           UX     0.098199227   -0.002803612    0.052691953
           UY    -0.002800281    0.076417940   -0.010150532
           UZ     0.053096098   -0.010190226    0.166759964

           MEAN ALPHA POLARIZABILITY =     0.113792377


  LMO ALPHA POLARIZABILITY TENSOR FOR BOND BETWEEN ATOM  1 AND ATOM  2
                      UX             UY             UZ
           UX     0.126613777    0.050899287    0.009351375
           UY     0.051143929    0.139625371    0.010019314
           UZ     0.009389943    0.010026908    0.079550637

           MEAN ALPHA POLARIZABILITY =     0.115263261


  LMO ALPHA POLARIZABILITY TENSOR FOR BOND BETWEEN ATOM  1 AND ATOM  5
                      UX             UY             UZ
           UX     0.136265531   -0.008205032   -0.064013672
           UY    -0.008386698    0.077101146    0.012091938
           UZ    -0.064371017    0.011924834    0.131772436

           MEAN ALPHA POLARIZABILITY =     0.115046371


  LMO ALPHA POLARIZABILITY TENSOR FOR BOND BETWEEN ATOM  1 AND ATOM  3
                      UX             UY             UZ
           UX     0.091534090   -0.031441120    0.002413278
           UY    -0.031507280    0.186993409   -0.002596549
           UZ     0.002327921   -0.002397479    0.074271924

           MEAN ALPHA POLARIZABILITY =     0.117599808


               -----------------------------------
                TOTAL ALPHA POLARIZABILITY TENSOR 
               -----------------------------------
                      UX             UY             UZ
           UX     0.453082853    0.008455433    0.000444056
           UY     0.008455433    0.480623514    0.009368350
           UZ     0.000444056    0.009368350    0.452823773

           MEAN ALPHA POLARIZABILITY =     0.462176713

 COMPUTING DYNAMIC POLARIZABILTY FOR IMAGINARY FREQUENCY   2.3075922I (A.U.)
 GMRES CONVERGED IN                      8 ITERATIONS
 GMRES CONVERGED IN                      8 ITERATIONS
 GMRES CONVERGED IN                      7 ITERATIONS

[...]


  LMO ALPHA POLARIZABILITY TENSOR FOR BOND BETWEEN ATOM  1 AND ATOM  4
                      UX             UY             UZ
           UX     0.007321366   -0.000111110    0.001192894
           UY    -0.000117858    0.006860498   -0.000295556
           UZ     0.001188967   -0.000284422    0.009016978

           MEAN ALPHA POLARIZABILITY =     0.007732947


  LMO ALPHA POLARIZABILITY TENSOR FOR BOND BETWEEN ATOM  1 AND ATOM  2
                      UX             UY             UZ
           UX     0.008092558    0.001304734    0.000220624
           UY     0.001287861    0.008125259    0.000226896
           UZ     0.000214408    0.000224233    0.006795808

           MEAN ALPHA POLARIZABILITY =     0.007671208


  LMO ALPHA POLARIZABILITY TENSOR FOR BOND BETWEEN ATOM  1 AND ATOM  5
                      UX             UY             UZ
           UX     0.008174578   -0.000186893   -0.001480601
           UY    -0.000184813    0.006861058    0.000265336
           UZ    -0.001470109    0.000264344    0.008167580

           MEAN ALPHA POLARIZABILITY =     0.007734405


  LMO ALPHA POLARIZABILITY TENSOR FOR BOND BETWEEN ATOM  1 AND ATOM  3
                      UX             UY             UZ
           UX     0.007147231   -0.000901151    0.000065434
           UY    -0.000879589    0.009217375   -0.000121898
           UZ     0.000065082   -0.000129395    0.006712540

           MEAN ALPHA POLARIZABILITY =     0.007692382


               -----------------------------------
                TOTAL ALPHA POLARIZABILITY TENSOR 
               -----------------------------------
                      UX             UY             UZ
           UX     0.031163365    0.000106753   -0.000001691
           UY     0.000106753    0.031497080    0.000076266
           UZ    -0.000001691    0.000076266    0.031120183

           MEAN ALPHA POLARIZABILITY =     0.031260209

 COMPUTING DYNAMIC POLARIZABILTY FOR IMAGINARY FREQUENCY  32.2390801I (A.U.)
 GMRES CONVERGED IN                      5 ITERATIONS
 GMRES CONVERGED IN                      5 ITERATIONS
 GMRES CONVERGED IN                      5 ITERATIONS

          -----------------------------------
           LOCALIZED ALPHA POLARIZABILITIES 
                 IN ANGSTROMS**3            
          -----------------------------------

           CORE ALPHA POLARIZABILITY TENSOR 
                      UX             UY             UZ
           UX     0.000061115    0.000000239    0.000000036
           UY     0.000000238    0.000061770    0.000000204
           UZ     0.000000036    0.000000204    0.000061061

           MEAN ALPHA POLARIZABILITY =     0.000061315


  LMO ALPHA POLARIZABILITY TENSOR FOR BOND BETWEEN ATOM  1 AND ATOM  4
                      UX             UY             UZ
           UX     0.000266953   -0.000003910    0.000034060
           UY    -0.000004217    0.000253398   -0.000009179
           UZ     0.000033987   -0.000008628    0.000317496

           MEAN ALPHA POLARIZABILITY =     0.000279283


  LMO ALPHA POLARIZABILITY TENSOR FOR BOND BETWEEN ATOM  1 AND ATOM  2
                      UX             UY             UZ
           UX     0.000290055    0.000039003    0.000006449
           UY     0.000037999    0.000288236    0.000006471
           UZ     0.000006130    0.000006352    0.000250843

           MEAN ALPHA POLARIZABILITY =     0.000276378


  LMO ALPHA POLARIZABILITY TENSOR FOR BOND BETWEEN ATOM  1 AND ATOM  5
                      UX             UY             UZ
           UX     0.000291375   -0.000005819   -0.000043052
           UY    -0.000005686    0.000253200    0.000007415
           UZ    -0.000042719    0.000007454    0.000292619

           MEAN ALPHA POLARIZABILITY =     0.000279065


  LMO ALPHA POLARIZABILITY TENSOR FOR BOND BETWEEN ATOM  1 AND ATOM  3
                      UX             UY             UZ
           UX     0.000261138   -0.000028352    0.000001791
           UY    -0.000027172    0.000320465   -0.000004092
           UZ     0.000001850   -0.000004563    0.000248646

           MEAN ALPHA POLARIZABILITY =     0.000276750


               -----------------------------------
                TOTAL ALPHA POLARIZABILITY TENSOR 
               -----------------------------------
                      UX             UY             UZ
           UX     0.001170637    0.000001162   -0.000000716
           UY     0.000001162    0.001177069    0.000000819
           UZ    -0.000000716    0.000000819    0.001170665

           MEAN ALPHA POLARIZABILITY =     0.001172790

 ...... DONE WITH CPHF CONTRIBUTIONS ......
 STEP CPU TIME =     0.03 TOTAL CPU TIME =        0.4 (    0.0 MIN)
 TOTAL WALL CLOCK TIME=        0.6 SECONDS, CPU UTILIZATION IS  66.67%

 RUNTYP=MAKEFP IS NOW GENERATING EXCHANGE REPULSION DATA
 RUNTYP=MAKEFP HAS JUST FINISHED DOING THAT.

 RUNTYP=MAKEFP IS NOW GENERATING SCREENING PARAMETERS.


     ---------------------------------------
     EFFECTIVE POTENTIAL SCREENING PARAMETER
              OPTIMIZATION PROGRAM
     ---------------------------------------
     AUTHORS: WALT STEVENS, MARK FREITAG, LYUDMILA SLIPCHENKO

 THE $DAMP INPUT DATA FOR THIS RUN IS:
 ISCCHG =     0
 THRSH  = 500.0
 MAXIT  =    30
 NMAIN  =     5
 INITIAL FIT WILL USE EXP. CH-CH  FORM WITH    FIXED LINEAR COEFICIENTS
  SECOND FIT WILL USE    GAUSSIAN FORM WITH    FIXED LINEAR COEFICIENTS

 THE CLASSICAL MULTIPOLE EXPANSION TO BE SCREENED IS

 CENTERS OF THE DISTRIBUTED MULTIPOLE EXPANSION, X,Y,Z
     C          4.91329   5.25344   5.61249
     H          3.55268   3.72276   5.34792
     H          4.28968   7.33214   5.55579
     H          5.91484   5.08336   7.46442
     H          6.44397   5.00777   4.11960
     BO21       4.23299   4.48810   5.48021
     BO31       4.60148   6.29279   5.58414
     BO41       5.41406   5.16840   6.53845
     BO51       5.67863   5.13061   4.86604

 CHARGES             Q
     C         -5.68230
     H         -0.74064
     H         -0.75167
     H         -0.77655
     H         -0.78215
     BO21      -0.36671
     BO31      -0.28495
     BO41      -0.32792
     BO51      -0.28712

 DIPOLES             X         Y         Z
     C         -0.03099  -0.01546   0.00009
     H         -0.02596  -0.03570  -0.00660
     H         -0.00529   0.04280   0.00499
     H          0.02228  -0.00121   0.03870
     H          0.03335  -0.00544  -0.03170
     BO21       0.18847   0.15544   0.02389
     BO31       0.14875  -0.24712   0.03005
     BO41      -0.13025   0.02066  -0.23590
     BO51      -0.18655  -0.00060   0.21299

 QUADRUPOLES        XX        YY        ZZ        XY        XZ        YZ
     C         -3.79859  -3.79643  -3.79509   0.01032   0.00348   0.00477
     H         -0.45987  -0.46317  -0.46257   0.00118   0.00008  -0.00025
     H         -0.49165  -0.49340  -0.49234  -0.00343   0.00172  -0.00274
     H         -0.50836  -0.50825  -0.50635  -0.00053   0.00063  -0.00106
     H         -0.51908  -0.51950  -0.51862  -0.00004  -0.00066   0.00008
     BO21      -0.31954  -0.31824  -0.31936   0.00080  -0.00001   0.00046
     BO31      -0.18774  -0.21216  -0.17199   0.00191   0.00141  -0.00083
     BO41      -0.26963  -0.26713  -0.27939   0.01432   0.00511   0.00293
     BO51      -0.20624  -0.21337  -0.20191   0.01624   0.01563   0.00151

 OCTUPOLES
     C         -0.09668  -0.18330  -0.06067   0.04058   0.05480
                0.11249   0.02617  -0.18000   0.00668   0.00595
     H         -0.03706  -0.05394  -0.01060  -0.01559  -0.00298
               -0.01024  -0.00305  -0.01342  -0.01892   0.00053
     H         -0.00625   0.06056   0.01008   0.02116   0.00368
                0.00152   0.00458  -0.00181   0.02216  -0.00084
     H          0.03486  -0.00154   0.05479  -0.00025   0.01876
                0.01188   0.02051   0.00828   0.00047   0.00052
     H          0.05055  -0.00882  -0.04783  -0.00239  -0.01359
                0.01793  -0.01702   0.01452  -0.00239  -0.00056
     BO21       0.69454   0.55392   0.08311   0.18599   0.02797
                0.23202   0.02766   0.23112   0.18388   0.00029
     BO31       0.61971  -0.94954   0.15237  -0.32221   0.03913
                0.19768   0.04278   0.23228  -0.31878  -0.00052
     BO41      -0.51338   0.05559  -0.89777   0.01263  -0.30068
               -0.17957  -0.30018  -0.16944   0.02289  -0.00156
     BO51      -0.72756  -0.03874   0.86627  -0.02075   0.28609
               -0.25402   0.27641  -0.22682  -0.01076  -0.00398


                         *****   WARNING   *****
 NO $DAMPGS CHARGE PENETRATION SCREENING INPUT WAS FOUND, CONTINUING...
   THIS INPUT GROUP LETS YOU ASSIGN EXACTLY EQUAL SCREENING EXPONENTS
   TO ANY SYMMETRY EQUIVALENT ATOMS AND BOND CENTERS, AND IT IS USUALLY
   A VERY GOOD IDEA TO ENTER THIS DATA.


 NUMBER OF OPTIMIZED PARAMETERS IS   9

 INITIAL VALUES OF SCREENING PARAMETERS ARE:
 NAME        COEF       EXP
 C          1.00000   2.00000
 H          1.00000   2.00000
 H          1.00000   2.00000
 H          1.00000   2.00000
 H          1.00000   2.00000
 BO21       1.00000   4.00000
 BO31       1.00000   4.00000
 BO41       1.00000   4.00000
 BO51       1.00000   4.00000

 QUANTUM ELECTROSTATIC POTENTIAL GRID IS GENERATED BY $PDC PTSEL=GEODESIC
 POINT SELECTION IS USING VDWSCL=  0.700
  MEMORY FOR PDCPTS:                 307920
 GAVEZZOTTI RADII USED FOR CHARGE FITTING
          EFP CENTER      VDW RADIUS
          C               2.83 BOHR
          H               2.27 BOHR
          H               2.27 BOHR
          H               2.27 BOHR
          H               2.27 BOHR
 RADIUS FOR BOND MID-POINT BETWEEN ATOMS  2 AND  1
          BO21            2.55 BOHR
 RADIUS FOR BOND MID-POINT BETWEEN ATOMS  3 AND  1
          BO31            2.55 BOHR
 RADIUS FOR BOND MID-POINT BETWEEN ATOMS  4 AND  1
          BO41            2.55 BOHR
 RADIUS FOR BOND MID-POINT BETWEEN ATOMS  5 AND  1
          BO51            2.55 BOHR
 {3,5+}NH,NK TEMPLATE USED, NH= 3 NK= 0
 NUMBER OF POINTS SELECTED FOR FITTING =    4192

  TO SIMULATE EVEN POINT DENSITY IN GEODES GRID
  TOTAL NUMBER OF POINTS WAS ARTIFICIALLY INCREASED
  TO      28732
 DAMPING COMPUTATION NEEDS       46373 WORDS
 PLUS       225552 WORDS

 ----- THE ELECTROSTATIC POTENTIAL GRID CONTAINS     4192 POINTS -----
 ----- THE QUANTUM POTENTIAL HAS BEEN GENERATED ON THE GRID -----
 ----- THE UNSCREENED CLASSICAL POTENTIAL GRID HAS BEEN GENERATED -----
 ELECTROSTATIC POTENTIAL CPU TIME: QUANTUM=     0.1, CLASSICAL=    0.00

 *** SINGLE EXPONENTIAL USED AS DAMPING FUNCTION ***
  CHARGE-CHARGE SCREENING WILL BE PERFORMED 

 FITTING SCREENED MULTIPOLE CLASSICAL POTENTIAL TO THE QUANTUM POTENTIAL...
  INITIAL ALPHAS ARE    2.000   2.000   2.000   2.000   2.000   4.000   4.000   4.000   4.000
 INITIAL CHI^2 =       2.45687742
 POWELL PROCEDURE, ITERATION      1 CHI^2 =       0.86447078
 POWELL PROCEDURE, ITERATION      2 CHI^2 =       0.72862114
 POWELL PROCEDURE, ITERATION      3 CHI^2 =       0.79713358
 POWELL PROCEDURE, ITERATION      4 CHI^2 =       0.74415457
 POWELL PROCEDURE, ITERATION      5 CHI^2 =       0.75778003
 POWELL PROCEDURE, ITERATION      6 CHI^2 =       0.72781623
 POWELL PROCEDURE, ITERATION      7 CHI^2 =       0.64217473
 POWELL PROCEDURE, ITERATION      8 CHI^2 =       0.61168891
 POWELL PROCEDURE, ITERATION      9 CHI^2 =       0.60765789
 POWELL PROCEDURE, ITERATION     10 CHI^2 =       0.60336058
 POWELL PROCEDURE, ITERATION     11 CHI^2 =       0.60323997
 POWELL PROCEDURE, ITERATION     12 CHI^2 =       0.60315589
 POWELL PROCEDURE, ITERATION     13 CHI^2 =       0.60301344
 POWELL PROCEDURE, ITERATION     14 CHI^2 =       0.60294700
 POWELL PROCEDURE, ITERATION     15 CHI^2 =       0.60275554
 POWELL PROCEDURE, ITERATION     16 CHI^2 =       0.60272142
 POWELL PROCEDURE, ITERATION     17 CHI^2 =       0.60259107
 POWELL PROCEDURE, ITERATION     18 CHI^2 =       0.60256429
 POWELL PROCEDURE, ITERATION     19 CHI^2 =       0.60249879
 POWELL PROCEDURE, ITERATION     20 CHI^2 =       0.60249338
 POWELL PROCEDURE, ITERATION     21 CHI^2 =       0.60249159
 FUNCTION WAS EVALUATED   2270 TIMES
 POWELL MINIMIZATION PROCEDURE CONVERGED IN    22 ITERATIONS
 ENDING VALUE OF CHI^2 IS      0.60249088
 OPTIMIZED NONLINEAR PARAMETERS ARE
    1.8371   1.8189   1.7211   1.7141   1.6926   1.5320   1.5064   1.8916
   1.8044
 POWELL PROCEDURE REQUIRED     3.4 SECONDS

               ----- OPTIMIZED SCREENING PARAMETERS ----- 
 NAME          X        Y        Z               COEF                 ALPHA
 C          4.9133   5.2534   5.6125         1.0000000000         1.8370501193
 H          3.5527   3.7228   5.3479         1.0000000000         1.8189074763
 H          4.2897   7.3321   5.5558         1.0000000000         1.7211195086
 H          5.9148   5.0834   7.4644         1.0000000000         1.7141481491
 H          6.4440   5.0078   4.1196         1.0000000000         1.6925553745
 BO21       4.2330   4.4881   5.4802         1.0000000000         1.5320130883
 BO31       4.6015   6.2928   5.5841         1.0000000000         1.5064489699
 BO41       5.4141   5.1684   6.5385         1.0000000000         1.8915629318
 BO51       5.6786   5.1306   4.8660         1.0000000000         1.8043980074

 STATISTICS FOR UNSCREENED MULTIPOLES
 ------------------------------------
 AVERAGE UNSIGNED ERROR        (      4192 PTS) = 5.380431E+00
 RMS DEVIATION                 (      4192 PTS) = 1.235770E+01
 RMS DEVIATION (ERR > THRSH/8) (         8 PTS) = 7.337385E+01
 RMS DEVIATION (ERR > THRSH/4) (         0 PTS) = 0.000000E+00
 RMS DEVIATION (ERR > THRSH/2) (         0 PTS) = 0.000000E+00
 RMS DEVIATION (ERR > THRSH)   (         0 PTS) = 0.000000E+00
 
 EFFECTIVE AV. UNSIGNED ERROR  (     28732 PTS) = 7.850051E-01
 EFFECTIVE RMS DEVIATION       (     28732 PTS) = 4.719771E+00


 STATISTICS FOR SCREENED MULTIPOLES
 ----------------------------------
 AVERAGE UNSIGNED ERROR        (      4192 PTS) = 6.441077E-01
 RMS DEVIATION                 (      4192 PTS) = 1.393422E+00
 RMS DEVIATION (ERR > THRSH/8) (         0 PTS) = 0.000000E+00
 RMS DEVIATION (ERR > THRSH/4) (         0 PTS) = 0.000000E+00
 RMS DEVIATION (ERR > THRSH/2) (         0 PTS) = 0.000000E+00
 RMS DEVIATION (ERR > THRSH)   (         0 PTS) = 0.000000E+00
 
 EFFECTIVE AV. UNSIGNED ERROR  (     28732 PTS) = 9.397535E-02
 EFFECTIVE RMS DEVIATION       (     28732 PTS) = 5.321892E-01


 GRID POINTS WITH ERRORS (QUANTUM - EITHER FIT) GREATER THAN  500.00 KCAL/MOL
   POINT  CENTER  DISTANCE   X     Y       Z    QUANTUM      DIFF      DIFF   
                  FROM ORIGIN                              SCREEN  NOSCREEN

 ..... DONE WITH CHARGE PENETRATION SCREENING .....
 STEP CPU TIME =     3.46 TOTAL CPU TIME =        3.9 (    0.1 MIN)
 TOTAL WALL CLOCK TIME=        4.1 SECONDS, CPU UTILIZATION IS  94.40%

 *** SINGLE GAUSSIAN USED AS DAMPING FUNCTION ***

 FITTING SCREENED MULTIPOLE CLASSICAL POTENTIAL TO THE QUANTUM POTENTIAL...
  INITIAL ALPHAS ARE    1.084   1.084   1.084   1.084   1.084   4.335   4.335   4.335   4.335
 INITIAL CHI^2 =       3.32405064
 POWELL PROCEDURE, ITERATION      1 CHI^2 =       1.63695111
 POWELL PROCEDURE, ITERATION      2 CHI^2 =       1.51254801
 POWELL PROCEDURE, ITERATION      3 CHI^2 =       1.50720077
 FUNCTION WAS EVALUATED    450 TIMES
 POWELL MINIMIZATION PROCEDURE CONVERGED IN     4 ITERATIONS
 ENDING VALUE OF CHI^2 IS      1.50720006
 OPTIMIZED NONLINEAR PARAMETERS ARE
    0.7528   0.8825   0.8506   0.8644   0.8527  10.0000  10.2309  10.1500
  10.1569
 POWELL PROCEDURE REQUIRED     0.7 SECONDS

               ----- OPTIMIZED SCREENING PARAMETERS ----- 
 NAME          X        Y        Z               COEF                 ALPHA
 C          4.9133   5.2534   5.6125         1.0000000000         0.7527582602
 H          3.5527   3.7228   5.3479         1.0000000000         0.8825322430
 H          4.2897   7.3321   5.5558         1.0000000000         0.8505540929
 H          5.9148   5.0834   7.4644         1.0000000000         0.8643740200
 H          6.4440   5.0078   4.1196         1.0000000000         0.8527338815
 BO21       4.2330   4.4881   5.4802         1.0000000000        10.0000000000
 BO31       4.6015   6.2928   5.5841         1.0000000000        10.2309369157
 BO41       5.4141   5.1684   6.5385         1.0000000000        10.1500199005
 BO51       5.6786   5.1306   4.8660         1.0000000000        10.1568704780

 STATISTICS FOR UNSCREENED MULTIPOLES
 ------------------------------------
 AVERAGE UNSIGNED ERROR        (      4192 PTS) = 5.380431E+00
 RMS DEVIATION                 (      4192 PTS) = 1.235770E+01
 RMS DEVIATION (ERR > THRSH/8) (         8 PTS) = 7.337385E+01
 RMS DEVIATION (ERR > THRSH/4) (         0 PTS) = 0.000000E+00
 RMS DEVIATION (ERR > THRSH/2) (         0 PTS) = 0.000000E+00
 RMS DEVIATION (ERR > THRSH)   (         0 PTS) = 0.000000E+00
 
 EFFECTIVE AV. UNSIGNED ERROR  (     28732 PTS) = 7.850051E-01
 EFFECTIVE RMS DEVIATION       (     28732 PTS) = 4.719771E+00


 STATISTICS FOR SCREENED MULTIPOLES
 ----------------------------------
 AVERAGE UNSIGNED ERROR        (      4192 PTS) = 1.581018E+00
 RMS DEVIATION                 (      4192 PTS) = 3.402124E+00
 RMS DEVIATION (ERR > THRSH/8) (         0 PTS) = 0.000000E+00
 RMS DEVIATION (ERR > THRSH/4) (         0 PTS) = 0.000000E+00
 RMS DEVIATION (ERR > THRSH/2) (         0 PTS) = 0.000000E+00
 RMS DEVIATION (ERR > THRSH)   (         0 PTS) = 0.000000E+00
 
 EFFECTIVE AV. UNSIGNED ERROR  (     28732 PTS) = 2.306707E-01
 EFFECTIVE RMS DEVIATION       (     28732 PTS) = 1.299372E+00


 GRID POINTS WITH ERRORS (QUANTUM - EITHER FIT) GREATER THAN  500.00 KCAL/MOL
   POINT  CENTER  DISTANCE   X     Y       Z    QUANTUM      DIFF      DIFF   
                  FROM ORIGIN                              SCREEN  NOSCREEN

 ..... DONE WITH CHARGE PENETRATION SCREENING .....
 STEP CPU TIME =     0.67 TOTAL CPU TIME =        4.6 (    0.1 MIN)
 TOTAL WALL CLOCK TIME=        4.8 SECONDS, CPU UTILIZATION IS  95.19%

 PROCESSING $STONE INPUT...
 THE NUMBER OF "BOUNDARY" CORE MOS IS  0
 THE NUMBER OF MOS WITH ZERO OCCUPATION NUMBER IS  0
  
  ****************************************
  MULTIPOLE EXPANSION FOR EVERY LMO AT ITS
  CENTROID USING ITS OWN ELECTRON DENSITY 
     - NANDUN THELLAMUREGE AND HUI LI -   
  ****************************************
  
 MULTIPOLE EXPANSION FOR LMO             1
 TOTAL ELECTRON CHARGE =     -2.0000000000
 MULTIPOLE EXPANSION FOR LMO             2
 TOTAL ELECTRON CHARGE =     -2.0000000000
 MULTIPOLE EXPANSION FOR LMO             3
 TOTAL ELECTRON CHARGE =     -2.0000000000
 MULTIPOLE EXPANSION FOR LMO             4
 TOTAL ELECTRON CHARGE =     -2.0000000000
 MULTIPOLE EXPANSION FOR LMO             5
 TOTAL ELECTRON CHARGE =     -2.0000000000
  
  DONE WITH LMO EXPANSION.
 STEP CPU TIME =     0.01 TOTAL CPU TIME =        4.6 (    0.1 MIN)
 TOTAL WALL CLOCK TIME=        4.8 SECONDS, CPU UTILIZATION IS  95.20%
               2001912  WORDS OF DYNAMIC MEMORY USED
 EXECUTION OF GAMESS TERMINATED NORMALLY Mon Dec 28 15:10:57 2020
 DDI: 263624 bytes (0.3 MB / 0 MWords) used by master data server.

 ----------------------------------------
 CPU timing information for all processes
 ========================================
 0: 4.524 + 0.41 = 4.565
 ----------------------------------------
 ddikick.x: exited gracefully.
----- accounting info -----
Files used on the master node halstead-a047.rcac.purdue.edu were:
-rw-r--r-- 1 cviquezr student     476 Dec 28 15:10 /scratch/halstead/c/cviquezr/mol1_86_s.F05
-rw-r--r-- 1 cviquezr student  182232 Dec 28 15:10 /scratch/halstead/c/cviquezr/mol1_86_s.F09
-rw-r--r-- 1 cviquezr student 1243360 Dec 28 15:10 /scratch/halstead/c/cviquezr/mol1_86_s.F10
-rw-r--r-- 1 cviquezr student   64808 Dec 28 15:10 /scratch/halstead/c/cviquezr/mol1_86_s.F16
-rw-r--r-- 1 cviquezr student   64808 Dec 28 15:10 /scratch/halstead/c/cviquezr/mol1_86_s.F67
Mon Dec 28 15:11:00 EST 2020
0.217u 0.078s 0:08.10 3.4%	0+0k 0+8io 0pf+0w
