----- GAMESS execution script 'rungms' -----
This job is running on host halstead-a047.rcac.purdue.edu
under operating system Linux at Mon Dec 28 15:10:40 EST 2020
Available scratch disk space (Kbyte units) at beginning of the job is
Filesystem         1K-blocks          Used     Available Use% Mounted on
f02            2459942518784 1349402648576 1110539870208  55% /scratch/halstead
GAMESS temporary binary files will be written to /scratch/halstead/c/cviquezr
GAMESS supplementary output files will be written to /home/cviquezr/scr
Copying input file mol1_79_s.inp to your run's scratch directory...
The generated host list is
localhost

 Distributed Data Interface kickoff program.
 Initiating 1 compute processes on 1 nodes to run the following command:
 /depot/lslipche/apps/gamess/gamess_lyuda/gamess.03.x mol1_79_s 

          ******************************************************
          *         GAMESS VERSION =  1 MAY 2012 (R1)          *
          *             FROM IOWA STATE UNIVERSITY             *
          * M.W.SCHMIDT, K.K.BALDRIDGE, J.A.BOATZ, S.T.ELBERT, *
          *   M.S.GORDON, J.H.JENSEN, S.KOSEKI, N.MATSUNAGA,   *
          *          K.A.NGUYEN, S.J.SU, T.L.WINDUS,           *
          *       TOGETHER WITH M.DUPUIS, J.A.MONTGOMERY       *
          *         J.COMPUT.CHEM.  14, 1347-1363(1993)        *
          **************** 64 BIT INTEL VERSION ****************

  SINCE 1993, STUDENTS AND POSTDOCS WORKING AT IOWA STATE UNIVERSITY
  AND ALSO IN THEIR VARIOUS JOBS AFTER LEAVING ISU HAVE MADE IMPORTANT
  CONTRIBUTIONS TO THE CODE:
     IVANA ADAMOVIC, CHRISTINE AIKENS, YURI ALEXEEV, POOJA ARORA,
     ANDREY ASADCHEV, ROB BELL, PRADIPTA BANDYOPADHYAY, JONATHAN BENTZ,
     BRETT BODE, GALINA CHABAN, WEI CHEN, CHEOL HO CHOI, PAUL DAY,
     ALBERT DEFUSCO, TIM DUDLEY, DMITRI FEDOROV, GRAHAM FLETCHER,
     MARK FREITAG, KURT GLAESEMANN, DAN KEMP, GRANT MERRILL,
     NORIYUKI MINEZAWA, JONATHAN MULLIN, TAKESHI NAGATA,
     SEAN NEDD, HEATHER NETZLOFF, BOSILJKA NJEGIC, RYAN OLSON, MIKE PAK,
     JIM SHOEMAKER, LYUDMILA SLIPCHENKO, SAROM SOK, JIE SONG,
     TETSUYA TAKETSUGU, SIMON WEBB, SOOHAENG YOO, FEDERICO ZAHARIEV

  ADDITIONAL CODE HAS BEEN PROVIDED BY COLLABORATORS IN OTHER GROUPS:
     IOWA STATE UNIVERSITY:
          JOE IVANIC, LAIMUTIS BYTAUTAS, KLAUS RUEDENBERG
     UNIVERSITY OF TOKYO: KIMIHIKO HIRAO, TAKAHITO NAKAJIMA,
          TAKAO TSUNEDA, MUNEAKI KAMIYA, SUSUMU YANAGISAWA,
          KIYOSHI YAGI, MAHITO CHIBA, SEIKEN TOKURA, NAOAKI KAWAKAMI
     UNIVERSITY OF AARHUS: FRANK JENSEN
     UNIVERSITY OF IOWA: VISVALDAS KAIRYS, HUI LI
     NATIONAL INST. OF STANDARDS AND TECHNOLOGY: WALT STEVENS, DAVID GARMER
     UNIVERSITY OF PISA: BENEDETTA MENNUCCI, JACOPO TOMASI
     UNIVERSITY OF MEMPHIS: HENRY KURTZ, PRAKASHAN KORAMBATH
     UNIVERSITY OF ALBERTA: TOBY ZENG, MARIUSZ KLOBUKOWSKI
     UNIVERSITY OF NEW ENGLAND: MARK SPACKMAN
     MIE UNIVERSITY: HIROAKI UMEDA
     MICHIGAN STATE UNIVERSITY:
          KAROL KOWALSKI, MARTA WLOCH, JEFFREY GOUR, JESSE LUTZ, PIOTR PIECUCH
     UNIVERSITY OF SILESIA: MONIKA MUSIAL, STANISLAW KUCHARSKI
     FACULTES UNIVERSITAIRES NOTRE-DAME DE LA PAIX:
          OLIVIER QUINET, BENOIT CHAMPAGNE
     UNIVERSITY OF CALIFORNIA - SANTA BARBARA: BERNARD KIRTMAN
     INSTITUTE FOR MOLECULAR SCIENCE:
          KAZUYA ISHIMURA, MICHIO KATOUDA, AND SHIGERU NAGASE
     UNIVERSITY OF NOTRE DAME: DAN CHIPMAN
     KYUSHU UNIVERSITY:
          HARUYUKI NAKANO,
          FENG LONG GU, JACEK KORCHOWIEC, MARCIN MAKOWSKI, AND YURIKO AOKI,
          HIROTOSHI MORI AND EISAKU MIYOSHI
     PENNSYLVANIA STATE UNIVERSITY:
          TZVETELIN IORDANOV, CHET SWALINA, JONATHAN SKONE,
          SHARON HAMMES-SCHIFFER
     WASEDA UNIVERSITY:
          MASATO KOBAYASHI, TOMOKO AKAMA, TSUGUKI TOUMA,
          TAKESHI YOSHIKAWA, YASUHIRO IKABATA, HIROMI NAKAI
     UNIVERSITY OF NEBRASKA:
          PEIFENG SU, DEJUN SI, NANDUN THELLAMUREGE, YALI WANG, HUI LI
     UNIVERSITY OF ZURICH:
          ROBERTO PEVERATI, KIM BALDRIDGE
     N. COPERNICUS UNIVERSITY AND JACKSON STATE UNIVERSITY:
          MARIA BARYSZ

 EXECUTION OF GAMESS BEGUN Mon Dec 28 15:10:40 2020

            ECHO OF THE FIRST FEW INPUT CARDS -
 INPUT CARD> $contrl units=angs local=boys runtyp=makefp                                    
 INPUT CARD> mult=1 icharg=0 icut=11 $end                                                   
 INPUT CARD> $system timlim=99999   mwords=500 $end                                         
 INPUT CARD> $scf soscf=.f. dirscf=.t. diis=.t. CONV=1.0d-06  $end                          
 INPUT CARD> $basis gbasis=n31 ngauss=6 npfunc=0 ndfunc=1 nffunc=0                          
 INPUT CARD> diffs=.f. diffsp=.f. $end                                                      
 INPUT CARD> $DAMP IFTTYP(1)=2,0 IFTFIX(1)=1,1 thrsh=500.0 $end                             
 INPUT CARD> $MAKEFP  POL=.t. DISP=.t. CHTR=.f.  EXREP=.t. $end                             
 INPUT CARD> $data                                                                          
 INPUT CARD> mol1_79                                                                        
 INPUT CARD> C1                                                                             
 INPUT CARD>C 6 2.62 2.78 2.94                                                              
 INPUT CARD>H 1 1.88 1.94 2.73                                                              
 INPUT CARD>H 1 2.23 3.81 2.87                                                              
 INPUT CARD>H 1 3.09 2.69 3.96                                                              
 INPUT CARD>H 1 3.45 2.68 2.22                                                              
 INPUT CARD> $end                                                                           
  500000000 WORDS OF MEMORY AVAILABLE

     BASIS OPTIONS
     -------------
     GBASIS=N31          IGAUSS=       6      POLAR=POPN31  
     NDFUNC=       1     NFFUNC=       0     DIFFSP=       F
     NPFUNC=       0      DIFFS=       F     BASNAM=        


     RUN TITLE
     ---------
  mol1_79                                                                        

 THE POINT GROUP OF THE MOLECULE IS C1      
 THE ORDER OF THE PRINCIPAL AXIS IS     0

 ATOM      ATOMIC                      COORDINATES (BOHR)
           CHARGE         X                   Y                   Z
 C           6.0     4.9510820878        5.2534382459        5.5557944039
 H           1.0     3.5526848569        3.6660684162        5.1589519465
 H           1.0     4.2140889526        7.1998560132        5.4235135848
 H           1.0     5.8392533021        5.0833629070        7.4833149114
 H           1.0     6.5195546576        5.0644656471        4.1951916927

          INTERNUCLEAR DISTANCES (ANGS.)
          ------------------------------

                1 C          2 H          3 H          4 H          5 H     

   1 C       0.0000000    1.1389908 *  1.1035851 *  1.1266765 *  1.1033132 *
   2 H       1.1389908 *  0.0000000    1.9076163 *  1.8813559 *  1.8090329 *
   3 H       1.1035851 *  1.9076163 *  0.0000000    1.7838442 *  1.7854411 *
   4 H       1.1266765 *  1.8813559 *  1.7838442 *  0.0000000    1.7768793 *
   5 H       1.1033132 *  1.8090329 *  1.7854411 *  1.7768793 *  0.0000000  

  * ... LESS THAN  3.000


     ATOMIC BASIS SET
     ----------------
 THE CONTRACTED PRIMITIVE FUNCTIONS HAVE BEEN UNNORMALIZED
 THE CONTRACTED BASIS FUNCTIONS ARE NOW NORMALIZED TO UNITY

  SHELL TYPE  PRIMITIVE        EXPONENT          CONTRACTION COEFFICIENT(S)

 C         

      1   S       1          3047.5248800    0.001834737132
      1   S       2           457.3695180    0.014037322813
      1   S       3           103.9486850    0.068842622264
      1   S       4            29.2101553    0.232184443216
      1   S       5             9.2866630    0.467941348435
      1   S       6             3.1639270    0.362311985337

      2   L       7             7.8682723   -0.119332419775    0.068999066591
      2   L       8             1.8812885   -0.160854151696    0.316423960957
      2   L       9             0.5442493    1.143456437840    0.744308290898

      3   L      10             0.1687145    1.000000000000    1.000000000000

      4   D      11             0.8000000    1.000000000000

 H         

      5   S      12            18.7311370    0.033494604338
      5   S      13             2.8253944    0.234726953484
      5   S      14             0.6401217    0.813757326146

      6   S      15             0.1612778    1.000000000000

 H         

      7   S      16            18.7311370    0.033494604338
      7   S      17             2.8253944    0.234726953484
      7   S      18             0.6401217    0.813757326146

      8   S      19             0.1612778    1.000000000000

 H         

      9   S      20            18.7311370    0.033494604338
      9   S      21             2.8253944    0.234726953484
      9   S      22             0.6401217    0.813757326146

     10   S      23             0.1612778    1.000000000000

 H         

     11   S      24            18.7311370    0.033494604338
     11   S      25             2.8253944    0.234726953484
     11   S      26             0.6401217    0.813757326146

     12   S      27             0.1612778    1.000000000000

 TOTAL NUMBER OF BASIS SET SHELLS             =   12
 NUMBER OF CARTESIAN GAUSSIAN BASIS FUNCTIONS =   23
 NUMBER OF ELECTRONS                          =   10
 CHARGE OF MOLECULE                           =    0
 SPIN MULTIPLICITY                            =    1
 NUMBER OF OCCUPIED ORBITALS (ALPHA)          =    5
 NUMBER OF OCCUPIED ORBITALS (BETA )          =    5
 TOTAL NUMBER OF ATOMS                        =    5
 THE NUCLEAR REPULSION ENERGY IS       13.1025318955

     $CONTRL OPTIONS
     ---------------
 SCFTYP=RHF          RUNTYP=MAKEFP       EXETYP=RUN     
 MPLEVL=       0     CITYP =NONE         CCTYP =NONE         VBTYP =NONE    
 DFTTYP=NONE         TDDFT =NONE    
 MULT  =       1     ICHARG=       0     NZVAR =       0     COORD =UNIQUE  
 PP    =NONE         RELWFN=NONE         LOCAL =BOYS         NUMGRD=       F
 ISPHER=      -1     NOSYM =       0     MAXIT =      30     UNITS =ANGS    
 PLTORB=       F     MOLPLT=       F     AIMPAC=       F     FRIEND=        
 NPRINT=       7     IREST =       0     GEOM  =INPUT   
 NORMF =       0     NORMP =       0     ITOL  =      20     ICUT  =      11
 INTTYP=BEST         GRDTYP=BEST         QMTTOL= 1.0E-06

     $SYSTEM OPTIONS
     ---------------
  REPLICATED MEMORY=   500000000 WORDS (ON EVERY NODE).
 DISTRIBUTED MEMDDI=           0 MILLION WORDS IN AGGREGATE,
 MEMDDI DISTRIBUTED OVER   1 PROCESSORS IS           0 WORDS/PROCESSOR.
 TOTAL MEMORY REQUESTED ON EACH PROCESSOR=   500000000 WORDS.
 TIMLIM=       99999.00 MINUTES, OR      69.4 DAYS.
 PARALL= F  BALTYP=  DLB     KDIAG=    0  COREFL= F
 MXSEQ2=     300 MXSEQ3=     150

     INPUT FOR POTENTIAL-DERIVED CHARGES 
     -----------------------------------
     VDWSCL=    0.00   RMAX=    3.00   DELR=    0.80
     VDWINC=    0.10 PTDENS=    0.28
     LAYER =      25  NFREQ=      30 MAXPDC=  100000
     CONSTR=CHARGE    UNITS=ANGS      PTSEL=GEODESIC
     CENTER=  0.0000  0.0000  0.0000
     DPOLE =  0.0000  0.0000  0.0000
     QPOLE =  0.0000  0.0000  0.0000  0.0000  0.0000  0.0000


          ----------------
          PROPERTIES INPUT
          ----------------

     MOMENTS            FIELD           POTENTIAL          DENSITY
 IEMOM =       1   IEFLD =       0   IEPOT =       0   IEDEN =       0
 WHERE =COMASS     WHERE =NUCLEI     WHERE =NUCLEI     WHERE =NUCLEI  
 OUTPUT=BOTH       OUTPUT=BOTH       OUTPUT=BOTH       OUTPUT=BOTH    
 IEMINT=       0   IEFINT=       0                     IEDINT=       0
                                                       MORB  =       0
          EXTRAPOLATION IN EFFECT
          DIIS IN EFFECT
 ORBITAL PRINTING OPTION: NPREO=     1    23     2     1

     -------------------------------
     INTEGRAL TRANSFORMATION OPTIONS
     -------------------------------
     NWORD  =            0
     CUTOFF = 1.0E-09     MPTRAN =       0
     DIRTRF =       T     AOINTS =DUP     

          -----------------------------
          LOCALIZATION INPUT PARAMETERS
          -----------------------------
           LOCAL=BOYS          NOUTA=       1
          PRTLOC=       F      NOUTB=       0
          MAXLOC=     250     CVGLOC=1.00E-06
           FCORE=       T     SYMLOC=       F
          MOIDON=       F     EDCOMP=       F
          DIPDCM=       F      NPROT=       0
          QADDCM=       F     DEPRNT=       F
          POLNUM=       F     ORIENT=       F
          POLDYN=       T      VMTOL=1.50E-01
          NPRDTL=       2
          MOOUTA =      1

          ----------------------
          INTEGRAL INPUT OPTIONS
          ----------------------
 NOPK  =       1 NORDER=       0 SCHWRZ=       T

     ------------------------------------------
     THE POINT GROUP IS C1 , NAXIS= 0, ORDER= 1
     ------------------------------------------

     DIMENSIONS OF THE SYMMETRY SUBSPACES ARE
 A   =   23

 ..... DONE SETTING UP THE RUN .....
 STEP CPU TIME =     0.00 TOTAL CPU TIME =        0.0 (    0.0 MIN)
 TOTAL WALL CLOCK TIME=        0.0 SECONDS, CPU UTILIZATION IS   0.00%

          --------------
          MAKEFP OPTIONS
          --------------
          FRAG=FRAGNAME
          SCREEN= T    POL   = T    EXREP = T
          DISP  = T    CHTR  = F    CTVVO =

          ********************
          1 ELECTRON INTEGRALS
          ********************
 ...... END OF ONE-ELECTRON INTEGRALS ......
 STEP CPU TIME =     0.00 TOTAL CPU TIME =        0.0 (    0.0 MIN)
 TOTAL WALL CLOCK TIME=        0.0 SECONDS, CPU UTILIZATION IS   0.00%

          -------------
          GUESS OPTIONS
          -------------
          GUESS =HUCKEL            NORB  =       0          NORDER=       0
          MIX   =       F          PRTMO =       F          PUNMO =       F
          TOLZ  = 1.0E-08          TOLE  = 1.0E-05
          SYMDEN=       F          PURIFY=       F

 INITIAL GUESS ORBITALS GENERATED BY HUCKEL   ROUTINE.
 HUCKEL GUESS REQUIRES      7663 WORDS.

 SYMMETRIES FOR INITIAL GUESS ORBITALS FOLLOW.   BOTH SET(S).
     5 ORBITALS ARE OCCUPIED (    1 CORE ORBITALS).
     2=A        3=A        4=A        5=A        6=A        7=A        8=A   
     9=A       10=A       11=A       12=A       13=A       14=A       15=A   
 ...... END OF INITIAL ORBITAL SELECTION ......
 STEP CPU TIME =     0.00 TOTAL CPU TIME =        0.0 (    0.0 MIN)
 TOTAL WALL CLOCK TIME=        0.0 SECONDS, CPU UTILIZATION IS   0.00%

                    ----------------------
                    AO INTEGRAL TECHNOLOGY
                    ----------------------
     S,P,L SHELL ROTATED AXIS INTEGRALS, REPROGRAMMED BY
        KAZUYA ISHIMURA (IMS) AND JOSE SIERRA (SYNSTAR).
     S,P,D,L SHELL ROTATED AXIS INTEGRALS PROGRAMMED BY
        KAZUYA ISHIMURA (INSTITUTE FOR MOLECULAR SCIENCE).
     S,P,D,F,G SHELL TO TOTAL QUARTET ANGULAR MOMENTUM SUM 5,
        ERIC PROGRAM BY GRAHAM FLETCHER (ELORET AND NASA ADVANCED
        SUPERCOMPUTING DIVISION, AMES RESEARCH CENTER).
     S,P,D,F,G,L SHELL GENERAL RYS QUADRATURE PROGRAMMED BY
        MICHEL DUPUIS (PACIFIC NORTHWEST NATIONAL LABORATORY).

          --------------------
          2 ELECTRON INTEGRALS
          --------------------

 DIRECT SCF METHOD SKIPS INTEGRAL STORAGE ON DISK.
 DIRECT TRANSFORMATION SKIPS AO INTEGRAL STORAGE ON DISK.
  ...... END OF TWO-ELECTRON INTEGRALS .....
 STEP CPU TIME =     0.01 TOTAL CPU TIME =        0.0 (    0.0 MIN)
 TOTAL WALL CLOCK TIME=        0.0 SECONDS, CPU UTILIZATION IS  33.33%

          --------------------------
                 RHF SCF CALCULATION
          --------------------------

     NUCLEAR ENERGY =        13.1025318955
     MAXIT =   30     NPUNCH=    2
     EXTRAP=T  DAMP=F  SHIFT=F  RSTRCT=F  DIIS=T  DEM=F  SOSCF=F
     DENSITY MATRIX CONV=  2.00E-06
     MEMORY REQUIRED FOR RHF ITERS=     50242 WORDS.

 DIRECT SCF CALCULATION, SCHWRZ=T   FDIFF=T,  DIRTHR=  0.00E+00 NITDIR=10
 SCHWARZ INEQUALITY OVERHEAD:       276 INTEGRALS, T=        0.00

                                                                                   NONZERO     BLOCKS
 ITER EX DEM     TOTAL ENERGY        E CHANGE  DENSITY CHANGE    DIIS ERROR      INTEGRALS    SKIPPED
          * * *   INITIATING DIIS PROCEDURE   * * *
   1  0  0      -40.1061069329   -40.1061069329   0.163681339   0.394213090          32154          0
   2  1  0      -40.1848373059    -0.0787303730   0.045717750   0.047684116          32154          0
   3  2  0      -40.1888407073    -0.0040034014   0.015603458   0.019564707          32154          0
   4  3  0      -40.1894621855    -0.0006214782   0.004489133   0.003659958          32154          0
   5  4  0      -40.1894958947    -0.0000337092   0.000350093   0.000200133          32154          0
   6  5  0      -40.1894961608    -0.0000002660   0.000049394   0.000031886          32154          0
   7  6  0      -40.1894961649    -0.0000000041   0.000008107   0.000008449          32154          0
   8  7  0      -40.1894961650    -0.0000000001   0.000000869   0.000000784          32154          0
   9  8  0      -40.1894961650    -0.0000000000   0.000000222   0.000000191          32154          0

          -----------------
          DENSITY CONVERGED
          -----------------
     TIME TO FORM FOCK OPERATORS=       0.0 SECONDS (       0.0 SEC/ITER)
     FOCK TIME ON FIRST ITERATION=       0.0, LAST ITERATION=       0.0
     TIME TO SOLVE SCF EQUATIONS=       0.0 SECONDS (       0.0 SEC/ITER)

 FINAL RHF ENERGY IS      -40.1894961650 AFTER   9 ITERATIONS

          ------------
          EIGENVECTORS
          ------------

                      1          2          3          4          5
                  -11.2216    -0.9314    -0.5507    -0.5314    -0.5289
                     A          A          A          A          A   
    1  C  1  S    0.995709  -0.192741   0.002548   0.006549  -0.001224
    2  C  1  S    0.027832   0.355819  -0.003957  -0.014138   0.000674
    3  C  1  X    0.000091   0.015631   0.024471   0.428576  -0.002143
    4  C  1  Y    0.000028   0.008903   0.406246  -0.030087  -0.137699
    5  C  1  Z   -0.000004  -0.003293   0.136563  -0.010461   0.407176
    6  C  1  S   -0.012639   0.376881  -0.009506  -0.014961   0.008328
    7  C  1  X   -0.000392   0.006841   0.016997   0.235101   0.000200
    8  C  1  Y   -0.000104   0.002343   0.218071  -0.012645  -0.075456
    9  C  1  Z    0.000004  -0.000399   0.073404  -0.003230   0.223402
   10  C  1 XX   -0.001963   0.008981  -0.013784   0.007253  -0.007853
   11  C  1 YY   -0.001923   0.011741   0.011880  -0.030958  -0.011119
   12  C  1 ZZ   -0.001983   0.009097   0.001254   0.023407   0.019635
   13  C  1 XY   -0.000015   0.000146  -0.028376  -0.009557   0.007418
   14  C  1 XZ   -0.000014  -0.000143   0.006501  -0.015117   0.030788
   15  C  1 YZ    0.000004   0.001425  -0.008597  -0.001910  -0.002708
   16  H  2  S    0.000015   0.123589  -0.221696  -0.185426   0.021781
   17  H  2  S    0.002127   0.038792  -0.181379  -0.164403   0.020253
   18  H  3  S    0.000016   0.135026   0.231869  -0.137311  -0.104910
   19  H  3  S    0.002339   0.039726   0.186792  -0.124063  -0.090779
   20  H  4  S    0.000072   0.130093   0.059900   0.104790   0.262501
   21  H  4  S    0.002337   0.038506   0.047450   0.087884   0.233938
   22  H  5  S    0.000067   0.137235  -0.074751   0.217284  -0.174571
   23  H  5  S    0.002467   0.039089  -0.063750   0.187212  -0.154020

                      6          7          8          9         10
                    0.2487     0.3136     0.3165     0.3234     0.7309
                     A          A          A          A          A   
    1  C  1  S   -0.158560   0.005123   0.007820   0.001587  -0.000120
    2  C  1  S    0.118787   0.007002   0.001918  -0.000533   0.031708
    3  C  1  X   -0.012609  -0.275418  -0.094259   0.085079  -0.640381
    4  C  1  Y   -0.014998  -0.039291  -0.147407  -0.268182   0.224958
    5  C  1  Z    0.008821  -0.129265   0.248487  -0.124702   0.307681
    6  C  1  S    2.623230  -0.191040  -0.243749  -0.051590  -0.003488
    7  C  1  X    0.019092  -1.278923  -0.448574   0.402612   1.076103
    8  C  1  Y   -0.030715  -0.192627  -0.701333  -1.318519  -0.439003
    9  C  1  Z    0.027226  -0.588893   1.134709  -0.594770  -0.538356
   10  C  1 XX   -0.012062  -0.000395   0.004059  -0.005060  -0.031443
   11  C  1 YY   -0.012600  -0.011526   0.002469   0.007965   0.084680
   12  C  1 ZZ   -0.011136   0.014008  -0.003730  -0.002189  -0.037447
   13  C  1 XY   -0.001404  -0.006268  -0.007799  -0.008699   0.001091
   14  C  1 XZ   -0.001260  -0.000875  -0.012801   0.005189   0.068992
   15  C  1 YZ    0.000253  -0.002431   0.001025  -0.002672  -0.006705
   16  H  2  S   -0.016397  -0.071262  -0.039689  -0.024781   0.181327
   17  H  2  S   -1.055537  -1.372625  -0.720651  -0.935571  -0.077897
   18  H  3  S   -0.003180  -0.043803   0.024168   0.063078   0.335940
   19  H  3  S   -0.981385  -0.487851   0.800058   1.745908   0.014979
   20  H  4  S   -0.002970   0.053048  -0.070216   0.009591   0.027997
   21  H  4  S   -1.000115   1.387527  -1.199447   0.330481  -0.012613
   22  H  5  S    0.007806   0.026953   0.062709  -0.046910  -0.488652
   23  H  5  S   -0.941654   0.777133   1.462782  -1.084188  -0.021323

                     11         12         13         14         15
                    0.7367     0.7578     1.1367     1.1452     1.1691
                     A          A          A          A          A   
    1  C  1  S    0.001996  -0.000659  -0.039057  -0.007465   0.007980
    2  C  1  S    0.019879   0.021863   0.251476   0.140027  -0.122293
    3  C  1  X   -0.155954  -0.367170  -0.773902   0.153276  -0.298153
    4  C  1  Y    0.398644  -0.604595  -0.252879  -0.283978   0.774101
    5  C  1  Z   -0.620857  -0.301740   0.018884   0.816366   0.333200
    6  C  1  S   -0.070677   0.027889  -0.280194  -0.255339   0.217428
    7  C  1  X    0.256705   0.646948   1.063093  -0.198649   0.383624
    8  C  1  Y   -0.709709   1.193928   0.348967   0.375920  -1.017544
    9  C  1  Z    1.034595   0.573021  -0.026119  -1.076131  -0.436784
   10  C  1 XX    0.009812   0.039861   0.019161   0.048196   0.085214
   11  C  1 YY    0.059939   0.016264  -0.111922   0.098513  -0.130365
   12  C  1 ZZ   -0.069082  -0.040746   0.115285  -0.127169   0.028649
   13  C  1 XY   -0.035336   0.099505  -0.114057  -0.032039   0.139186
   14  C  1 XZ   -0.068861  -0.009259  -0.078417  -0.149787  -0.080775
   15  C  1 YZ    0.004660   0.029798  -0.029588   0.021082   0.046317
   16  H  2  S   -0.044866   0.520801  -0.934933  -0.015173   0.451472
   17  H  2  S   -0.019748   0.157638   1.452191   0.019152  -0.752561
   18  H  3  S    0.346805  -0.249292  -0.314057   0.313900  -0.705966
   19  H  3  S    0.038929  -0.184746   0.342422  -0.604581   1.306506
   20  H  4  S   -0.474744  -0.230176  -0.002123  -0.877243  -0.049264
   21  H  4  S    0.024879  -0.094252  -0.262625   1.571476   0.112466
   22  H  5  S    0.194820   0.006262   0.293577   0.337272   0.549911
   23  H  5  S    0.002725   0.010282  -0.848548  -0.652201  -0.970021

                     16         17         18         19         20
                    1.2114     1.3061     1.9464     1.9495     2.4968
                     A          A          A          A          A   
    1  C  1  S    0.074132  -0.113528  -0.007439   0.002923   0.001500
    2  C  1  S   -1.006253  -1.874830  -0.065523   0.025705   0.007495
    3  C  1  X   -0.275394   0.023733   0.001128  -0.000613  -0.050809
    4  C  1  Y   -0.239273   0.015038   0.002123   0.000964  -0.089671
    5  C  1  Z    0.074772  -0.003576  -0.002098  -0.001125  -0.033406
    6  C  1  S    1.737582   4.984927   0.205664  -0.080633  -0.062810
    7  C  1  X    0.301259   0.210993   0.012676  -0.003139  -0.220906
    8  C  1  Y    0.290084   0.061667   0.002883  -0.001623  -0.395852
    9  C  1  Z   -0.095072  -0.004838   0.001200   0.000692  -0.161658
   10  C  1 XX   -0.060519  -0.120500  -0.249363   0.845283   0.310625
   11  C  1 YY   -0.064468  -0.125411   0.059634  -0.352687   0.112649
   12  C  1 ZZ   -0.022894  -0.164052   0.181550  -0.489357  -0.428052
   13  C  1 XY   -0.071251   0.013423  -0.169164  -0.333924   0.964083
   14  C  1 XZ   -0.045232   0.009678   0.040941   0.383813  -0.021914
   15  C  1 YZ   -0.000323  -0.022578   0.950537   0.149085   0.277463
   16  H  2  S    0.202525  -0.288011  -0.033541   0.016236  -0.742014
   17  H  2  S   -0.079767  -0.826570  -0.025975   0.009472   0.055608
   18  H  3  S    0.642431  -0.342168  -0.036993   0.015101   0.372622
   19  H  3  S   -0.801318  -0.914426  -0.030582   0.013058   0.023819
   20  H  4  S    0.556311  -0.425442  -0.037718   0.013946   0.313221
   21  H  4  S   -0.603050  -0.850474  -0.033103   0.011693  -0.004063
   22  H  5  S    0.758559  -0.436098  -0.039005   0.012769   0.062901
   23  H  5  S   -0.961265  -0.919920  -0.034867   0.014416  -0.004820

                     21         22         23
                    2.5503     2.5728     4.5835
                     A          A          A   
    1  C  1  S    0.003143  -0.000348  -0.483048
    2  C  1  S   -0.014197   0.013164   2.978638
    3  C  1  X    0.031180  -0.119522  -0.014606
    4  C  1  Y   -0.073229   0.056237  -0.007606
    5  C  1  Z    0.105607   0.068785   0.002530
    6  C  1  S   -0.026908  -0.038994   2.292576
    7  C  1  X    0.094035  -0.297452   0.068587
    8  C  1  Y   -0.202625   0.152368   0.019383
    9  C  1  Z    0.300068   0.176606  -0.001740
   10  C  1 XX   -0.096020  -0.420396  -1.870046
   11  C  1 YY   -0.644374   0.812338  -1.877155
   12  C  1 ZZ    0.748410  -0.401138  -1.863000
   13  C  1 XY    0.326504  -0.046575   0.002631
   14  C  1 XZ    0.692513   0.766472   0.002164
   15  C  1 YZ   -0.056910  -0.096424   0.001206
   16  H  2  S   -0.025641  -0.210697   0.113489
   17  H  2  S   -0.001496   0.070184  -0.423402
   18  H  3  S    0.528893  -0.511712   0.129120
   19  H  3  S   -0.072386   0.080929  -0.467442
   20  H  4  S   -0.709398  -0.071798   0.106302
   21  H  4  S    0.121873   0.020544  -0.456297
   22  H  5  S    0.270339   0.768436   0.118187
   23  H  5  S   -0.043457  -0.113459  -0.484780
 LVS DENSITY MATRIX
 1  1 2.05727398E+00-8.19433551E-02-1.00320949E-04-1.36290277E-03 8.24622378E-04
 1  2-1.70714619E-01-2.52144093E-04 1.93530269E-05-5.37009143E-05-7.32682398E-03
 1  3-8.67254149E-03-7.19131484E-03-3.74690139E-04-2.13652322E-04-6.02826575E-04
 1  4-5.12220819E-02-1.38444922E-02-5.23773506E-02-1.11070380E-02-4.89690428E-02
 1  5-9.36944020E-03-4.98759512E-02-7.65078785E-03
 2  1-8.19433551E-02 2.55195111E-01-1.18636276E-03 3.78786671E-03-2.57992647E-03
 2  2 2.68008827E-01-1.93590793E-03 1.91663220E-04-4.72327518E-04 6.17559320E-03
 2  3 9.01493542E-03 5.71818873E-03 6.07935580E-04 3.14865866E-04 1.13258543E-03
 2  4 9.49781090E-02 3.38353066E-02 9.79966790E-02 3.03085628E-02 8.94998223E-02
 2  5 2.49868160E-02 9.18777050E-02 2.29577441E-02
 3  1-1.00320949E-04-1.18636276E-03 3.69050667E-01-5.03870730E-03-4.13174770E-03
 3  2-1.54461290E-03 2.02562422E-01 2.30700821E-04-1.46475172E-04 5.85623490E-03
 3  3-2.55398431E-02 2.03248424E-02-9.60747668E-03-1.27755433E-02-2.00167926E-03
 3  4-1.66018474E-01-1.48669366E-01-1.01677632E-01-9.55678602E-02 9.56943976E-02
 3  5 7.78537317E-02 1.87626220E-01 1.59232190E-01
 4  1-1.36290277E-03 3.78786671E-03-5.03870730E-03 3.69962939E-01-6.08292285E-04
 4  2-2.40670200E-03-2.70292421E-04 1.98764501E-01-1.69733046E-03-9.31290834E-03
 4  3 1.47865010E-02-5.63538486E-03-2.45206872E-02-2.28984306E-03-6.09914374E-03
 4  4-1.72766123E-01-1.42362465E-01 2.27950991E-01 1.84940873E-01-2.76128449E-02
 4  5-3.04757066E-02-2.32894151E-02-1.99492350E-02
 5  1 8.24622378E-04-2.57992647E-03-4.13174770E-03-6.08292285E-04 3.69124853E-01
 5  2 2.01623244E-03-1.58989965E-04-1.63801927E-03 2.02046554E-01-1.03710508E-02
 5  3-5.23925152E-03 1.57827295E-02-1.51030223E-03 2.71651855E-02-4.52324002E-03
 5  4-3.97484443E-02-2.98621816E-02-2.01206726E-02-2.05746058E-02 2.27079081E-01
 5  5 2.01375478E-01-1.68028909E-01-1.47012893E-01
 6  1-1.70714619E-01 2.68008827E-01-1.54461290E-03-2.40670200E-03 2.01623244E-03
 6  2 2.85165695E-01-2.18830385E-03-3.25586273E-03 2.12102070E-03 6.73363669E-03
 6  3 9.41401938E-03 6.51009725E-03 1.05955195E-03 7.34016253E-04 1.24935931E-03
 6  4 1.03282086E-01 3.78907969E-02 9.97297189E-02 2.85339309E-02 9.81553815E-02
 6  5 2.93296847E-02 9.54532895E-02 2.24465754E-02
 7  1-2.52144093E-04-1.93590793E-03 2.02562422E-01-2.70292421E-04-1.58989965E-04
 7  2-2.18830385E-03 1.11216999E-01 1.46951309E-03 1.06019748E-03 3.06298635E-03
 7  3-1.39949248E-02 1.11826433E-02-5.45320333E-03-6.87653040E-03-1.17189034E-03
 7  4-9.30248814E-02-8.29316129E-02-5.48763741E-02-5.14796001E-02 5.31934036E-02
 7  5 4.35547614E-02 1.01434394E-01 8.63318968E-02
 8  1 1.93530269E-05 1.91663220E-04 2.30700821E-04 1.98764501E-01-1.63801927E-03
 8  2-3.25586273E-03 1.46951309E-03 1.06828404E-01-1.61994900E-03-4.96738375E-03
 8  3 7.69776583E-03-2.96526287E-03-1.32531786E-02-1.42930525E-03-3.28599011E-03
 8  4-9.47096583E-02-7.78242917E-02 1.21065654E-01 9.84911569E-02-1.55301906E-02
 8  5-1.66517884E-02-1.11091429E-02-9.11264372E-03
 9  1-5.37009143E-05-4.72327518E-04-1.46475172E-04-1.69733046E-03 2.02046554E-01
 9  2 2.12102070E-03 1.06019748E-03-1.61994900E-03 1.10614082E-01-5.58653309E-03
 9  3-3.03310747E-03 8.79861567E-03-7.89747465E-04 1.48083972E-02-2.46110671E-03
 9  4-2.17157052E-02-1.65475271E-02-1.20548312E-02-1.23683458E-02 1.25299121E-01
 9  5 1.10891811E-01-9.04862550E-02-7.94163238E-02
10  1-7.32682398E-03 6.17559320E-03 5.85623490E-03-9.31290834E-03-1.03710508E-02
10  2 6.73363669E-03 3.06298635E-03-4.96738375E-03-5.58653309E-03 7.77570587E-04
10  3-3.83477282E-04 1.67758673E-04 5.29799765E-04-8.84590931E-04 2.77421902E-04
10  4 5.29966863E-03 2.98569886E-03-4.31062199E-03-4.81869850E-03-1.91779350E-03
10  5-3.02521977E-03 1.04193332E-02 7.58468220E-03
11  1-8.67254149E-03 9.01493542E-03-2.55398431E-02 1.47865010E-02-5.23925152E-03
11  2 9.41401938E-03-1.39949248E-02 7.69776583E-03-3.03310747E-03-3.83477282E-04
11  3 2.72942209E-03-1.63486592E-03-2.43993657E-04 4.02481436E-04 7.64328476E-06
11  4 8.63100900E-03 6.32191110E-03 1.95146618E-02 1.50623340E-02-7.84751750E-03
11  5-8.62086511E-03-8.12510989E-03-8.77275092E-03
12  1-7.19131484E-03 5.71818873E-03 2.03248424E-02-5.63538486E-03 1.57827295E-02
12  2 6.51009725E-03 1.11826433E-02-2.96526287E-03 8.79861567E-03 1.67758673E-04
12  3-1.63486592E-03 2.04340676E-03-2.24515669E-04 5.15132813E-04-1.91425028E-04
12  4-6.13271145E-03-6.65863279E-03-7.50989236E-03-8.19096425E-03 1.77310537E-02
12  5 1.41113606E-02 5.62583554E-03 3.25741636E-03
13  1-3.74690139E-04 6.07935580E-04-9.60747668E-03-2.45206872E-02-1.51030223E-03
13  2 1.05955195E-03-5.45320333E-03-1.32531786E-02-7.89747465E-04 5.29799765E-04
13  3-2.43993657E-04-2.24515669E-04 1.90317228E-03 3.76717988E-04 4.84661258E-04
13  4 1.64851460E-02 1.37476888E-02-1.20516660E-02-9.56493935E-03-1.46979973E-03
13  5-8.90709564E-04-2.46059283E-03-2.23398089E-03
14  1-2.13652322E-04 3.14865866E-04-1.27755433E-02-2.28984306E-03 2.71651855E-02
14  2 7.34016253E-04-6.87653040E-03-1.42930525E-03 1.48083972E-02-8.84590931E-04
14  3 4.02481436E-04 5.15132813E-04 3.76717988E-04 2.43740484E-03-2.21225958E-04
14  4 4.02932528E-03 3.84807280E-03 6.67544810E-04 5.78240194E-04 1.37372261E-02
14  5 1.23538355E-02-1.83298255E-02-1.59841368E-02
15  1-6.02826575E-04 1.13258543E-03-2.00167926E-03-6.09914374E-03-4.52324002E-03
15  2 1.24935931E-03-1.17189034E-03-3.28599011E-03-2.46110671E-03 2.77421902E-04
15  3 7.64328476E-06-1.91425028E-04 4.84661258E-04-2.21225958E-04 1.73858513E-04
15  4 4.75452288E-03 3.74761669E-03-2.50939900E-03-2.13300449E-03-2.48147003E-03
15  5-2.30906740E-03 1.79205829E-03 1.32679090E-03
16  1-5.12220819E-02 9.49781090E-02-1.66018474E-01-1.72766123E-01-3.97484443E-02
16  2 1.03282086E-01-9.30248814E-02-9.47096583E-02-2.17157052E-02 5.29966863E-03
16  3 8.63100900E-03-6.13271145E-03 1.64851460E-02 4.02932528E-03 4.75452288E-03
16  4 1.98561465E-01 1.51862066E-01-2.30815754E-02-3.09480050E-02-2.18301393E-02
16  5-3.39227924E-02-2.11196131E-02-3.82090280E-02
17  1-1.38444922E-02 3.38353066E-02-1.48669366E-01-1.42362465E-01-2.98621816E-02
17  2 3.78907969E-02-8.29316129E-02-7.78242917E-02-1.65475271E-02 2.98569886E-03
17  3 6.32191110E-03-6.65863279E-03 1.37476888E-02 3.84807280E-03 3.74761669E-03
17  4 1.51862066E-01 1.23692310E-01-3.27370591E-02-2.75524201E-02-3.54589006E-02
17  5-3.36367366E-02-4.07518194E-02-4.16262455E-02
18  1-5.23773506E-02 9.79966790E-02-1.01677632E-01 2.27950991E-01-2.01206726E-02
18  2 9.97297189E-02-5.48763741E-02 1.21065654E-01-1.20548312E-02-4.31062199E-03
18  3 1.95146618E-02-7.50989236E-03-1.20516660E-02 6.67544810E-04-2.50939900E-03
18  4-2.30815754E-02-3.27370591E-02 2.03711467E-01 1.50468969E-01-2.09456412E-02
18  5-4.08167048E-02-2.06469536E-02-3.81035904E-02
19  1-1.11070380E-02 3.03085628E-02-9.55678602E-02 1.84940873E-01-2.05746058E-02
19  2 2.85339309E-02-5.14796001E-02 9.84911569E-02-1.23683458E-02-4.81869850E-03
19  3 1.50623340E-02-8.19096425E-03-9.56493935E-03 5.78240194E-04-2.13300449E-03
19  4-3.09480050E-02-2.75524201E-02 1.50468969E-01 1.20215369E-01-4.09461052E-02
19  5-4.34829178E-02-3.92409349E-02-3.91876001E-02
20  1-4.89690428E-02 8.94998223E-02 9.56943976E-02-2.76128449E-02 2.27079081E-01
20  2 9.81553815E-02 5.31934036E-02-1.55301906E-02 1.25299121E-01-1.91779350E-03
20  3-7.84751750E-03 1.77310537E-02-1.46979973E-03 1.37372261E-02-2.48147003E-03
20  4-2.18301393E-02-3.54589006E-02-2.09456412E-02-4.09461052E-02 2.00799520E-01
20  5 1.56939914E-01-1.93599261E-02-3.90911876E-02
21  1-9.36944020E-03 2.49868160E-02 7.78537317E-02-3.04757066E-02 2.01375478E-01
21  2 2.93296847E-02 4.35547614E-02-1.66517884E-02 1.10891811E-01-3.02521977E-03
21  3-8.62086511E-03 1.41113606E-02-8.90709564E-04 1.23538355E-02-2.30906740E-03
21  4-3.39227924E-02-3.36367366E-02-4.08167048E-02-4.34829178E-02 1.56939914E-01
21  5 1.32380401E-01-4.00107599E-02-4.21843104E-02
22  1-4.98759512E-02 9.18777050E-02 1.87626220E-01-2.32894151E-02-1.68028909E-01
22  2 9.54532895E-02 1.01434394E-01-1.11091429E-02-9.04862550E-02 1.04193332E-02
22  3-8.12510989E-03 5.62583554E-03-2.46059283E-03-1.83298255E-02 1.79205829E-03
22  4-2.11196131E-02-4.07518194E-02-2.06469536E-02-3.92409349E-02-1.93599261E-02
22  5-4.00107599E-02 2.04217688E-01 1.55391435E-01
23  1-7.65078785E-03 2.29577441E-02 1.59232190E-01-1.99492350E-02-1.47012893E-01
23  2 2.24465754E-02 8.63318968E-02-9.11264372E-03-7.94163238E-02 7.58468220E-03
23  3-8.77275092E-03 3.25741636E-03-2.23398089E-03-1.59841368E-02 1.32679090E-03
23  4-3.82090280E-02-4.16262455E-02-3.81035904E-02-3.91876001E-02-3.90911876E-02
23  5-4.21843104E-02 1.55391435E-01 1.28737476E-01
 ...... END OF RHF CALCULATION ......
 STEP CPU TIME =     0.05 TOTAL CPU TIME =        0.1 (    0.0 MIN)
 TOTAL WALL CLOCK TIME=        0.1 SECONDS, CPU UTILIZATION IS  66.67%

     ----------------------------------------------------------------
     PROPERTY VALUES FOR THE RHF   SELF-CONSISTENT FIELD WAVEFUNCTION
     ----------------------------------------------------------------

          -----------------
          ENERGY COMPONENTS
          -----------------

         WAVEFUNCTION NORMALIZATION =       1.0000000000

                ONE ELECTRON ENERGY =     -79.0561315851
                TWO ELECTRON ENERGY =      25.7641035245
           NUCLEAR REPULSION ENERGY =      13.1025318955
                                      ------------------
                       TOTAL ENERGY =     -40.1894961650

 ELECTRON-ELECTRON POTENTIAL ENERGY =      25.7641035245
  NUCLEUS-ELECTRON POTENTIAL ENERGY =    -119.0517855866
   NUCLEUS-NUCLEUS POTENTIAL ENERGY =      13.1025318955
                                      ------------------
             TOTAL POTENTIAL ENERGY =     -80.1851501665
               TOTAL KINETIC ENERGY =      39.9956540015
                 VIRIAL RATIO (V/T) =       2.0048465807

          ---------------------------------------
          MULLIKEN AND LOWDIN POPULATION ANALYSES
          ---------------------------------------

     ATOMIC MULLIKEN POPULATION IN EACH MOLECULAR ORBITAL

                      1          2          3          4          5

                  2.000000   2.000000   2.000000   2.000000   2.000000

    1             1.998213   1.366388   1.094087   1.097672   1.096812
    2             0.000398   0.142996   0.404993   0.285033   0.004076
    3             0.000457   0.165257   0.426068   0.152801   0.086658
    4             0.000447   0.155611   0.028893   0.088295   0.568504
    5             0.000486   0.169747   0.045958   0.376199   0.243950

               ----- POPULATIONS IN EACH AO -----
                             MULLIKEN      LOWDIN
              1  C  1  S      1.99644     1.98188
              2  C  1  S      0.61769     0.35151
              3  C  1  X      0.67358     0.61034
              4  C  1  Y      0.67930     0.61340
              5  C  1  Z      0.67346     0.61026
              6  C  1  S      0.71236     0.36819
              7  C  1  X      0.40906     0.52862
              8  C  1  Y      0.40379     0.52223
              9  C  1  Z      0.40814     0.52963
             10  C  1 XX      0.01346     0.14803
             11  C  1 YY      0.02485     0.16351
             12  C  1 ZZ      0.01747     0.15230
             13  C  1 XY      0.01006     0.01444
             14  C  1 XZ      0.01263     0.01807
             15  C  1 YZ      0.00090     0.00128
             16  H  2  S      0.50152     0.46555
             17  H  2  S      0.33597     0.37921
             18  H  3  S      0.51491     0.47822
             19  H  3  S      0.31633     0.36485
             20  H  4  S      0.50761     0.47495
             21  H  4  S      0.33414     0.37613
             22  H  5  S      0.51650     0.48138
             23  H  5  S      0.31984     0.36598

          ----- MULLIKEN ATOMIC OVERLAP POPULATIONS -----
          (OFF-DIAGONAL ELEMENTS NEED TO BE MULTIPLIED BY 2)

             1           2           3           4           5

    1    5.1219701
    2    0.3817169   0.5221929
    3    0.3840835  -0.0175309   0.5220319
    4    0.3821511  -0.0210998  -0.0298900   0.5398045
    5    0.3832510  -0.0277836  -0.0274530  -0.0292155   0.5375410

          TOTAL MULLIKEN AND LOWDIN ATOMIC POPULATIONS
       ATOM         MULL.POP.    CHARGE          LOW.POP.     CHARGE
    1 C             6.653173   -0.653173         6.613724   -0.613724
    2 H             0.837496    0.162504         0.844763    0.155237
    3 H             0.831242    0.168758         0.843067    0.156933
    4 H             0.841750    0.158250         0.851082    0.148918
    5 H             0.836340    0.163660         0.847364    0.152636

          -------------------------------
          BOND ORDER AND VALENCE ANALYSIS     BOND ORDER THRESHOLD=0.050
          -------------------------------

                   BOND                       BOND                       BOND
  ATOM PAIR DIST  ORDER      ATOM PAIR DIST  ORDER      ATOM PAIR DIST  ORDER
    1   2  1.139  0.961        1   3  1.104  0.958        1   4  1.127  0.962
    1   5  1.103  0.959

                       TOTAL       BONDED        FREE
      ATOM            VALENCE     VALENCE     VALENCE
    1 C                 3.840       3.840      -0.000
    2 H                 0.942       0.942       0.000
    3 H                 0.934       0.934       0.000
    4 H                 0.937       0.937      -0.000
    5 H                 0.931       0.931      -0.000

          ---------------------
          ELECTROSTATIC MOMENTS
          ---------------------

 POINT   1           X           Y           Z (BOHR)    CHARGE
                 4.971278    5.253438    5.558170       -0.00 (A.U.)
         DX          DY          DZ         /D/  (DEBYE)
     0.058985    0.026869   -0.016962    0.066999

          ----------------------------------
          DENSITY BASED MULTIPOLAR EXPANSION
          ----------------------------------
                 13762 GRID POINTS ARE USED
 TOTAL NUMBER OF ELECTRONS =                    10
 TOTAL CHARGE OBTAINED FROM GRID INTEGRAL =  9.90010
 A SCALING FACTOR OF 1.01009 IS APPLIED
 THE EXPANSION POINTS ARE PUNCHED OUT IN THE DAT FILE
  
 ...... END OF PROPERTY EVALUATION ......
 STEP CPU TIME =     0.32 TOTAL CPU TIME =        0.4 (    0.0 MIN)
 TOTAL WALL CLOCK TIME=        0.4 SECONDS, CPU UTILIZATION IS  88.37%

 RUNTYP=MAKEFP IS NOW GENERATING DISTRIBUTED MULTIPOLES FOR ELECTOSTATICS


 PROCESSING $STONE INPUT...
 THE NUMBER OF "BOUNDARY" CORE MOS IS  0
 THE NUMBER OF MOS WITH ZERO OCCUPATION NUMBER IS  0
 TOTAL ELECTRON CHARGE =    -10.0000000000

          ---------------------------------------------
          DISTRIBUTED MULTIPOLAR ANALYSIS (A. J. STONE)
          ---------------------------------------------

 NET CHARGES AT POINTS                    COORDINATES
 ---------------------                    -----------
    #   NAME        CHARGE          X           Y           Z
    1   ZC          6.00000      4.95108     5.25344     5.55579
    2   ZH          1.00000      3.55268     3.66607     5.15895
    3   ZH          1.00000      4.21409     7.19986     5.42351
    4   ZH          1.00000      5.83925     5.08336     7.48331
    5   ZH          1.00000      6.51955     5.06447     4.19519
    6   C          -5.67614      4.95108     5.25344     5.55579
    7   H          -0.75502      3.55268     3.66607     5.15895
    8   H          -0.75810      4.21409     7.19986     5.42351
    9   H          -0.77356      5.83925     5.08336     7.48331
   10   H          -0.77343      6.51955     5.06447     4.19519
   11   BO21       -0.28617      4.25188     4.45975     5.35737
   12   BO31       -0.33078      4.58259     6.22665     5.48965
   13   BO41       -0.28886      5.39517     5.16840     6.51955
   14   BO51       -0.35793      5.73532     5.15895     4.87549

 THE DISTRIBUTED MULTIPOLE ANALYSIS IS FOR THE -ELECTRONIC- PART ONLY
 OF THE FOLLOWING MOMENTS.  ALL QUANTITIES ARE IN ATOMIC UNITS


 FIRST MOMENTS AT POINTS
 -----------------------
 NAME               X             Y             Z
 C             -0.01299       0.00379      -0.00508
 H             -0.02917      -0.03692      -0.00992
 H             -0.01286       0.04272      -0.00151
 H              0.02051      -0.00201       0.04096
 H              0.03304      -0.00437      -0.02773
 BO21           0.20642       0.18151       0.03588
 BO31           0.13982      -0.22592       0.00513
 BO41          -0.07904       0.06663      -0.26288
 BO51          -0.19114       0.02090       0.17572

 SECOND MOMENTS AT POINTS
 ------------------------
 NAME           XX         YY         ZZ         XY         XZ         YZ
 C          -3.78121   -3.77573   -3.77923   -0.00555   -0.00342    0.00228
 H          -0.48748   -0.48960   -0.48874    0.00016   -0.00016   -0.00048
 H          -0.48299   -0.48320   -0.48401   -0.00163    0.00032   -0.00060
 H          -0.50697   -0.50661   -0.50510   -0.00030    0.00012   -0.00076
 H          -0.49970   -0.50117   -0.49956   -0.00005   -0.00156    0.00008
 BO21       -0.19754   -0.20508   -0.18801   -0.00868   -0.00617   -0.00036
 BO31       -0.25585   -0.27186   -0.26045   -0.00304   -0.01701    0.00211
 BO41       -0.20109   -0.19423   -0.20810   -0.01542   -0.01532   -0.00002
 BO51       -0.31732   -0.32002   -0.31850   -0.00015   -0.00224    0.00038

 THIRD MOMENTS AT POINTS
 -----------------------
 NAME           XXX        YYY        ZZZ        XXY        XXZ        XYY
                YYZ        XZZ        YZZ        XYZ
 C          -0.03229   -0.05246   -0.12939    0.06752    0.05907    0.14332
             0.02443   -0.14191    0.04072    0.01105
 H          -0.04410   -0.05698   -0.01622   -0.01696   -0.00470   -0.01253
            -0.00469   -0.01553   -0.01990    0.00073
 H          -0.01939    0.06073   -0.00218    0.02127   -0.00060   -0.00334
            -0.00000   -0.00664    0.02266   -0.00031
 H           0.03264   -0.00300    0.05829   -0.00083    0.02058    0.01103
             0.02187    0.00781   -0.00009    0.00040
 H           0.04816   -0.00702   -0.04089   -0.00186   -0.01080    0.01744
            -0.01459    0.01408   -0.00196   -0.00043
 BO21        0.82449    0.70979    0.14467    0.23180    0.03516    0.26302
             0.04300    0.29113    0.22656    0.00152
 BO31        0.56133   -0.83594   -0.00606   -0.28072   -0.01230    0.18353
             0.00147    0.19380   -0.27899    0.00137
 BO41       -0.27054    0.31282   -1.03062    0.09583   -0.35420   -0.10779
            -0.34124   -0.08348    0.09260    0.00282
 BO51       -0.71465    0.07618    0.65935    0.02544    0.22074   -0.23815
             0.21890   -0.23893    0.02533   -0.00029
 STEP CPU TIME =     0.00 TOTAL CPU TIME =        0.4 (    0.0 MIN)
 TOTAL WALL CLOCK TIME=        0.5 SECONDS, CPU UTILIZATION IS  84.44%

 RUNTYP=MAKEFP IS NOW GENERATING LOCALIZED ORBITALS
               AND DISTRIBUTED POLARIZABILITY TENSORS
               AND DATA FOR DISPERSION.


          -------------------------
          BOYS ORBITAL LOCALIZATION
          -------------------------
          S.F.BOYS, IN "QUANTUM THEORY OF ATOMS, MOLECULES, AND SOLIDS"
          P.O.LOWDIN, ED. ACADEMIC PRESS, NY, 1966 PP253-266.

          THIS LOCALIZATION REQUIRES      1549 WORDS OF MEMORY.
          THIS LOCALIZATION HAS   5 ORBITALS, OF WHICH   1 ARE FROZEN.

          THE INITIAL LOCALIZATION SUM IS      4.297907 DEBYE**2
          BOYS ITERATION  10 ORBITAL CHANGE=    4.2048710801E-09
          LOCALIZATION CONVERGED IN  11 ITERATIONS
            THE FINAL LOCALIZATION SUM IS     52.159587 DEBYE**2

          THE BOYS LOCALIZED ORBITALS ARE

                      1          2          3          4          5

    1  C  1  S    0.995709   0.098404   0.097714   0.095095   0.094474
    2  C  1  S    0.027832  -0.183526  -0.180945  -0.174898  -0.172659
    3  C  1  X    0.000091   0.153833   0.251541  -0.278443  -0.141624
    4  C  1  Y    0.000028  -0.338721   0.259377   0.034942   0.041855
    5  C  1  Z   -0.000004   0.030150   0.059454   0.251621  -0.341768
    6  C  1  S   -0.012639  -0.188368  -0.195711  -0.182495  -0.187972
    7  C  1  X   -0.000392   0.083242   0.141111  -0.150323  -0.078549
    8  C  1  Y   -0.000104  -0.179601   0.142486   0.016962   0.023827
    9  C  1  Z    0.000004   0.017923   0.032349   0.135375  -0.188714
   10  C  1 XX   -0.001963   0.005495  -0.008872  -0.016497   0.001968
   11  C  1 YY   -0.001923  -0.030514  -0.014452   0.010693   0.010332
   12  C  1 ZZ   -0.001983   0.010416   0.008408  -0.009178  -0.027465
   13  C  1 XY   -0.000015   0.017711  -0.024934   0.003492   0.002005
   14  C  1 XZ   -0.000014  -0.001140  -0.006217   0.027291  -0.020832
   15  C  1 YZ    0.000004   0.003537  -0.007323  -0.002869   0.003543
   16  H  2  S    0.000015   0.018675  -0.313636   0.016325   0.017257
   17  H  2  S    0.002127   0.042346  -0.234128   0.054893   0.047108
   18  H  3  S    0.000016  -0.317682   0.019653   0.016274   0.016811
   19  H  3  S    0.002339  -0.228459   0.041684   0.054060   0.056998
   20  H  4  S    0.000072   0.018308   0.019384   0.016168  -0.315321
   21  H  4  S    0.002337   0.057374   0.047247   0.056509  -0.239724
   22  H  5  S    0.000067   0.018268   0.019119  -0.318014   0.016628
   23  H  5  S    0.002467   0.054329   0.055027  -0.234933   0.056477
 ...... END OF ORBITAL LOCALIZATION ......
 STEP CPU TIME =     0.00 TOTAL CPU TIME =        0.4 (    0.0 MIN)
 TOTAL WALL CLOCK TIME=        0.5 SECONDS, CPU UTILIZATION IS  84.44%
 NORMALIZED MULL. POP. FOR EACH LMO
   1   0.999 0.000 0.000 0.000 0.000
   2   0.584-0.006 0.441-0.010-0.009
   3   0.582 0.441-0.006-0.007-0.009
   4   0.582-0.009-0.009-0.010 0.446
   5   0.580-0.007-0.010 0.447-0.010

 ATOMS ARE ASSIGNED TO THE LMOS BASED ON THEIR MULLIKEN POPULATION.
 (MULLIKEN POP. THRESHOLD(VMTOL)=0.150 WAS USED)
 ORBITAL   1 BELONGS TO ATOM(S)   1
 ORBITAL   2 BELONGS TO ATOM(S)   1  3
 ORBITAL   3 BELONGS TO ATOM(S)   1  2
 ORBITAL   4 BELONGS TO ATOM(S)   1  5
 ORBITAL   5 BELONGS TO ATOM(S)   1  4
 
  LCD DIPOLES 
 
 LMO    XP        YP        ZP        MUX       MUY       MUZ     TOTAL
   1  4.95110   5.25344   5.55579  -0.00008  -0.00003   0.00001   0.00008
   2  4.42345   6.55220   5.45591   0.80898  -1.65494   0.17155   1.85005
   3  3.99538   4.20783   5.30215   1.30396   1.28068   0.28072   1.84912
   4  6.00422   5.12647   4.62939  -1.36697   0.16511   1.25105   1.86037
   5  5.53029   5.12197   6.85796  -0.68692   0.23604  -1.72028   1.86733

     ------------------------------
     CPHF RESPONSE SOLUTION OPTIONS
     ------------------------------
     POLAR  =       F     NWORD  =       0
     CPHF   =AO      

     --------------------------------------------
     PARTIAL TWO ELECTRON INTEGRAL TRANSFORMATION
     --------------------------------------------

 NUMBER OF CORE MOLECULAR ORBITALS     =    0
 NUMBER OF OCCUPIED MOLECULAR ORBITALS =    5
 TOTAL NUMBER OF MOLECULAR ORBITALS    =   23
 TOTAL NUMBER OF ATOMIC ORBITALS       =   23
 THRESHOLD FOR KEEPING TRANSFORMED 2E- INTEGRALS = 1.000E-09
 AO INTEGRALS WILL BE CALCULATED IN DIRECT MODE...

 PLAN A: REQUIREMENTS FOR FULLY IN-MEMORY TRANSFORMATION:
 # OF WORDS AVAILABLE =            500000000
 # OF WORDS NEEDED    =               139985

 CHOOSING IN MEMORY PARTIAL TRANSFORMATION...
 DIRECT TRANSFORMATION SKIPS AO INTEGRAL STORAGE ON DISK.
 TOTAL NUMBER OF TRANSFORMED 2E- INTEGRALS KEPT =         8130
 ... END OF INTEGRAL TRANSFORMATION ...
 STEP CPU TIME =     0.01 TOTAL CPU TIME =        0.4 (    0.0 MIN)
 TOTAL WALL CLOCK TIME=        0.5 SECONDS, CPU UTILIZATION IS  82.98%

     -------------------------------------------
     COUPLED-PERTURBED CLOSED SHELL HARTREE-FOCK
     -------------------------------------------
 THE CPHF HAS      90 INDEPENDENT ORBITAL ROTATIONS.
 CHOOSING OUT OF MEMORY CPHF ALGORITHM,
 -A- WILL BE FORMED IN    1 SLICES OF     90 COLUMNS.
         -B- WILL USE      1926 WORDS,
 -A- AND -U- WILL USE     40098 WORDS,
            THERE ARE 500000000 WORDS AVAILABLE.
 IN MEMORY FORMATION OF -A- WOULD REQUIRE         0 WORDS
        TIME FOR   -B-  =        0.000
        TIME FOR   -A-  =        0.000
 BICONJUGATE GRADIENT SOLVER     CONV. TOLERANCE=1.00E-05
 ITER   1 IMPROVED    3 RESPONSES, MAX RESIDUE=  2.1974538E-03
 ITER   2 IMPROVED    3 RESPONSES, MAX RESIDUE=  7.3401999E-04
 ITER   3 IMPROVED    3 RESPONSES, MAX RESIDUE=  4.4549658E-05
 ITER   4 IMPROVED    3 RESPONSES, MAX RESIDUE=  2.0531207E-06
        TIME FOR  -U-   =        0.000
 SOLVING FOR ALL   3 UNIQUE RESPONSES TOOK   12 ITERATIONS.
 CONJUGATE GRADIENT SOLVER MADE  13 READS OF THE EXTERNALLY STORED -A-

          -----------------------------------
           LOCALIZED ALPHA POLARIZABILITIES 
                 IN ANGSTROMS**3            
          -----------------------------------

           CORE ALPHA POLARIZABILITY TENSOR 
                      UX             UY             UZ
           UX     0.000543796    0.000007968    0.000022549
           UY     0.000012496    0.000542286   -0.000004815
           UZ     0.000021337   -0.000005497    0.000530913

           MEAN ALPHA POLARIZABILITY =     0.000538998


  LMO ALPHA POLARIZABILITY TENSOR FOR BOND BETWEEN ATOM  1 AND ATOM  3
                      UX             UY             UZ
           UX     0.311485244   -0.259228482    0.023258605
           UY    -0.242358367    0.884703083   -0.041649398
           UZ     0.024452349   -0.048501719    0.210443120

           MEAN ALPHA POLARIZABILITY =     0.468877149


  LMO ALPHA POLARIZABILITY TENSOR FOR BOND BETWEEN ATOM  1 AND ATOM  2
                      UX             UY             UZ
           UX     0.573576838    0.397067976    0.105061947
           UY     0.381897823    0.673141610    0.113310984
           UZ     0.100465374    0.112558762    0.253917932

           MEAN ALPHA POLARIZABILITY =     0.500212127


  LMO ALPHA POLARIZABILITY TENSOR FOR BOND BETWEEN ATOM  1 AND ATOM  5
                      UX             UY             UZ
           UX     0.655592047   -0.050903718   -0.404139389
           UY    -0.048970243    0.201436983    0.050491090
           UZ    -0.412626446    0.052736565    0.542948399

           MEAN ALPHA POLARIZABILITY =     0.466659143


  LMO ALPHA POLARIZABILITY TENSOR FOR BOND BETWEEN ATOM  1 AND ATOM  4
                      UX             UY             UZ
           UX     0.344294146   -0.021036618    0.323517147
           UY    -0.024496426    0.212856518   -0.063565370
           UZ     0.335287255   -0.058348299    0.905419208

           MEAN ALPHA POLARIZABILITY =     0.487523291


               -----------------------------------
                TOTAL ALPHA POLARIZABILITY TENSOR 
               -----------------------------------
                      UX             UY             UZ
           UX     1.885492072    0.065907126    0.047720860
           UY     0.066085283    1.972680480    0.058582491
           UZ     0.047599869    0.058439812    1.913259572

           MEAN ALPHA POLARIZABILITY =     1.923810708


          -----------------------------------------------
           LOCALIZED ALPHA POLARIZABILITY TENSORS FOR 
           LONE PAIRS AND BONDS PROJECTED ONTO THE Z-AXIS 
          -----------------------------------------------


  LMO ALPHA POLARIZABILITY TENSOR FOR BOND BETWEEN ATOM  1 AND ATOM  3
                      UX             UY             UZ
           UX     0.217255232    0.006576486   -0.006936622
           UY     0.006339132    0.207128559   -0.004963731
           UZ     0.009982618    0.001867306    0.982247655

           MEAN ALPHA POLARIZABILITY =     0.468877149


  LMO ALPHA POLARIZABILITY TENSOR FOR BOND BETWEEN ATOM  1 AND ATOM  2
                      UX             UY             UZ
           UX     0.230707805   -0.002517919    0.007904616
           UY    -0.002413664    0.224492140   -0.002389403
           UZ    -0.007549705   -0.005992315    1.045436435

           MEAN ALPHA POLARIZABILITY =     0.500212127


  LMO ALPHA POLARIZABILITY TENSOR FOR BOND BETWEEN ATOM  1 AND ATOM  5
                      UX             UY             UZ
           UX     0.196074287   -0.005525967   -0.003678414
           UY    -0.005184212    0.186128252   -0.007031717
           UZ    -0.001421047    0.001663000    1.017774890

           MEAN ALPHA POLARIZABILITY =     0.466659143


  LMO ALPHA POLARIZABILITY TENSOR FOR BOND BETWEEN ATOM  1 AND ATOM  4
                      UX             UY             UZ
           UX     0.209094933    0.001934736    0.000844679
           UY     0.001950420    0.190984462    0.005482646
           UZ    -0.007267685   -0.005096240    1.062490477

           MEAN ALPHA POLARIZABILITY =     0.487523291
 .... DONE WITH STATIC POLARIZABILITY ....
 STEP CPU TIME =     0.00 TOTAL CPU TIME =        0.4 (    0.0 MIN)
 TOTAL WALL CLOCK TIME=        0.5 SECONDS, CPU UTILIZATION IS  81.25%
 USING   GMRES    SOLVER FOR LINEAR SYSTEM OF SIZE        90

 A TOTAL OF  12 IMAGINARY FREQUENCY POLARIZABILITIES ARE TO BE FOUND
 ALLOCATING MEMORY FOR GMRES SOLVER
 CALCULATING H2*H1 DIAGONAL
 WIDTH=                    90 NROT=                    90

 COMPUTING DYNAMIC POLARIZABILTY FOR IMAGINARY FREQUENCY   0.0027916I (A.U.)
 GMRES CONVERGED IN                     14 ITERATIONS
 GMRES CONVERGED IN                     14 ITERATIONS
 GMRES CONVERGED IN                     14 ITERATIONS

          -----------------------------------
           LOCALIZED ALPHA POLARIZABILITIES 
                 IN ANGSTROMS**3            
          -----------------------------------

           CORE ALPHA POLARIZABILITY TENSOR 
                      UX             UY             UZ
           UX     0.000535488    0.000010625    0.000009179
           UY     0.000012539    0.000548235    0.000000828
           UZ     0.000009654    0.000000789    0.000523390

           MEAN ALPHA POLARIZABILITY =     0.000535704


  LMO ALPHA POLARIZABILITY TENSOR FOR BOND BETWEEN ATOM  1 AND ATOM  3
                      UX             UY             UZ
           UX     0.311439928   -0.259161284    0.023021126
           UY    -0.242323355    0.884705242   -0.041560513
           UZ     0.024214386   -0.048419439    0.210526426

           MEAN ALPHA POLARIZABILITY =     0.468890532


  LMO ALPHA POLARIZABILITY TENSOR FOR BOND BETWEEN ATOM  1 AND ATOM  2
                      UX             UY             UZ
           UX     0.573605589    0.397000765    0.104812508
           UY     0.381800903    0.673172445    0.113437283
           UZ     0.100379451    0.112719107    0.253943976

           MEAN ALPHA POLARIZABILITY =     0.500240670


  LMO ALPHA POLARIZABILITY TENSOR FOR BOND BETWEEN ATOM  1 AND ATOM  5
                      UX             UY             UZ
           UX     0.655481049   -0.050803307   -0.404253455
           UY    -0.048965060    0.201473347    0.050596068
           UZ    -0.412836073    0.052923319    0.542963404

           MEAN ALPHA POLARIZABILITY =     0.466639267


  LMO ALPHA POLARIZABILITY TENSOR FOR BOND BETWEEN ATOM  1 AND ATOM  4
                      UX             UY             UZ
           UX     0.344321006   -0.020980393    0.323260819
           UY    -0.024458621    0.212889586   -0.063470832
           UZ     0.335082758   -0.058220941    0.905458215

           MEAN ALPHA POLARIZABILITY =     0.487556269


               -----------------------------------
                TOTAL ALPHA POLARIZABILITY TENSOR 
               -----------------------------------
                      UX             UY             UZ
           UX     1.885383060    0.066066406    0.046850177
           UY     0.066066406    1.972788855    0.059002834
           UZ     0.046850177    0.059002834    1.913415412

           MEAN ALPHA POLARIZABILITY =     1.923862442

 COMPUTING DYNAMIC POLARIZABILTY FOR IMAGINARY FREQUENCY   0.0151066I (A.U.)
 GMRES CONVERGED IN                      9 ITERATIONS
 GMRES CONVERGED IN                      9 ITERATIONS
 GMRES CONVERGED IN                      9 ITERATIONS

          -----------------------------------
           LOCALIZED ALPHA POLARIZABILITIES 
                 IN ANGSTROMS**3            
          -----------------------------------

           CORE ALPHA POLARIZABILITY TENSOR 
                      UX             UY             UZ
           UX     0.000535353    0.000010618    0.000009171
           UY     0.000012530    0.000548109    0.000000836
           UZ     0.000009645    0.000000797    0.000523268

           MEAN ALPHA POLARIZABILITY =     0.000535577


  LMO ALPHA POLARIZABILITY TENSOR FOR BOND BETWEEN ATOM  1 AND ATOM  3
                      UX             UY             UZ
           UX     0.311264480   -0.258932051    0.023003288
           UY    -0.242125025    0.884060921   -0.041525867
           UZ     0.024194149   -0.048370781    0.210426017

           MEAN ALPHA POLARIZABILITY =     0.468583806


  LMO ALPHA POLARIZABILITY TENSOR FOR BOND BETWEEN ATOM  1 AND ATOM  2
                      UX             UY             UZ
           UX     0.573198929    0.396646139    0.104721716
           UY     0.381474984    0.672694907    0.113338635
           UZ     0.100297239    0.112621995    0.253814700

           MEAN ALPHA POLARIZABILITY =     0.499902845


  LMO ALPHA POLARIZABILITY TENSOR FOR BOND BETWEEN ATOM  1 AND ATOM  5
                      UX             UY             UZ
           UX     0.655011141   -0.050760546   -0.403921655
           UY    -0.048926948    0.201383880    0.050558017
           UZ    -0.412490830    0.052880438    0.542578945

           MEAN ALPHA POLARIZABILITY =     0.466324655


  LMO ALPHA POLARIZABILITY TENSOR FOR BOND BETWEEN ATOM  1 AND ATOM  4
                      UX             UY             UZ
           UX     0.344106153   -0.020960851    0.322991979
           UY    -0.024432233    0.212793695   -0.063412932
           UZ     0.334794295   -0.058173759    0.904758214

           MEAN ALPHA POLARIZABILITY =     0.487219354


               -----------------------------------
                TOTAL ALPHA POLARIZABILITY TENSOR 
               -----------------------------------
                      UX             UY             UZ
           UX     1.884116055    0.066003307    0.046804498
           UY     0.066003307    1.971481511    0.058958690
           UZ     0.046804498    0.058958690    1.912101145

           MEAN ALPHA POLARIZABILITY =     1.922566237

 COMPUTING DYNAMIC POLARIZABILTY FOR IMAGINARY FREQUENCY   0.0390017I (A.U.)
 GMRES CONVERGED IN                     10 ITERATIONS
 GMRES CONVERGED IN                     10 ITERATIONS
 GMRES CONVERGED IN                     10 ITERATIONS

          -----------------------------------
           LOCALIZED ALPHA POLARIZABILITIES 
                 IN ANGSTROMS**3            
          -----------------------------------

           CORE ALPHA POLARIZABILITY TENSOR 
                      UX             UY             UZ
           UX     0.000534567    0.000010579    0.000009125
           UY     0.000012473    0.000547372    0.000000884
           UZ     0.000009595    0.000000845    0.000522559

           MEAN ALPHA POLARIZABILITY =     0.000534833


  LMO ALPHA POLARIZABILITY TENSOR FOR BOND BETWEEN ATOM  1 AND ATOM  3
                      UX             UY             UZ
           UX     0.310240343   -0.257595357    0.022899259
           UY    -0.240968011    0.880301319   -0.041323806
           UZ     0.024076189   -0.048087318    0.209839741

           MEAN ALPHA POLARIZABILITY =     0.466793801


  LMO ALPHA POLARIZABILITY TENSOR FOR BOND BETWEEN ATOM  1 AND ATOM  2
                      UX             UY             UZ
           UX     0.570826487    0.394578193    0.104192219
           UY     0.379573907    0.669908399    0.112763250
           UZ     0.099817608    0.112055539    0.253059846

           MEAN ALPHA POLARIZABILITY =     0.497931577


  LMO ALPHA POLARIZABILITY TENSOR FOR BOND BETWEEN ATOM  1 AND ATOM  5
                      UX             UY             UZ
           UX     0.652269523   -0.050511076   -0.401986125
           UY    -0.048704442    0.200861366    0.050335894
           UZ    -0.410477065    0.052630269    0.540335964

           MEAN ALPHA POLARIZABILITY =     0.464488951


  LMO ALPHA POLARIZABILITY TENSOR FOR BOND BETWEEN ATOM  1 AND ATOM  4
                      UX             UY             UZ
           UX     0.342852382   -0.020846907    0.321423803
           UY    -0.024278493    0.212233683   -0.063075426
           UZ     0.333111955   -0.057898540    0.900675050

           MEAN ALPHA POLARIZABILITY =     0.485253705


               -----------------------------------
                TOTAL ALPHA POLARIZABILITY TENSOR 
               -----------------------------------
                      UX             UY             UZ
           UX     1.876723302    0.065635432    0.046538282
           UY     0.065635432    1.963852138    0.058700796
           UZ     0.046538282    0.058700796    1.904433160

           MEAN ALPHA POLARIZABILITY =     1.915002867

 COMPUTING DYNAMIC POLARIZABILTY FOR IMAGINARY FREQUENCY   0.0779961I (A.U.)
 GMRES CONVERGED IN                     11 ITERATIONS
 GMRES CONVERGED IN                     11 ITERATIONS
 GMRES CONVERGED IN                     10 ITERATIONS

          -----------------------------------
           LOCALIZED ALPHA POLARIZABILITIES 
                 IN ANGSTROMS**3            
          -----------------------------------

           CORE ALPHA POLARIZABILITY TENSOR 
                      UX             UY             UZ
           UX     0.000531878    0.000010442    0.000008967
           UY     0.000012275    0.000544845    0.000001045
           UZ     0.000009420    0.000001008    0.000520136

           MEAN ALPHA POLARIZABILITY =     0.000532287


  LMO ALPHA POLARIZABILITY TENSOR FOR BOND BETWEEN ATOM  1 AND ATOM  3
                      UX             UY             UZ
           UX     0.306693472   -0.252984436    0.022540296
           UY    -0.236970125    0.867300208   -0.040626352
           UZ     0.023669908   -0.047113078    0.207807142

           MEAN ALPHA POLARIZABILITY =     0.460600274


  LMO ALPHA POLARIZABILITY TENSOR FOR BOND BETWEEN ATOM  1 AND ATOM  2
                      UX             UY             UZ
           UX     0.562627705    0.387444048    0.102364763
           UY     0.373008465    0.660271282    0.110776421
           UZ     0.098160051    0.110099172    0.250442432

           MEAN ALPHA POLARIZABILITY =     0.491113806


  LMO ALPHA POLARIZABILITY TENSOR FOR BOND BETWEEN ATOM  1 AND ATOM  5
                      UX             UY             UZ
           UX     0.642792512   -0.049648837   -0.395299689
           UY    -0.047933402    0.199048159    0.049566529
           UZ    -0.403522789    0.051765729    0.532583825

           MEAN ALPHA POLARIZABILITY =     0.458141499


  LMO ALPHA POLARIZABILITY TENSOR FOR BOND BETWEEN ATOM  1 AND ATOM  4
                      UX             UY             UZ
           UX     0.338515243   -0.020453888    0.316007536
           UY    -0.023749884    0.210290565   -0.061912745
           UZ     0.327305283   -0.056947932    0.886572488

           MEAN ALPHA POLARIZABILITY =     0.478459432


               -----------------------------------
                TOTAL ALPHA POLARIZABILITY TENSOR 
               -----------------------------------
                      UX             UY             UZ
           UX     1.851160810    0.064367329    0.045621874
           UY     0.064367329    1.937455059    0.057804898
           UZ     0.045621874    0.057804898    1.877926023

           MEAN ALPHA POLARIZABILITY =     1.888847298

 COMPUTING DYNAMIC POLARIZABILTY FOR IMAGINARY FREQUENCY   0.1386505I (A.U.)
 GMRES CONVERGED IN                     11 ITERATIONS
 GMRES CONVERGED IN                     11 ITERATIONS
 GMRES CONVERGED IN                     11 ITERATIONS

          -----------------------------------
           LOCALIZED ALPHA POLARIZABILITIES 
                 IN ANGSTROMS**3            
          -----------------------------------

           CORE ALPHA POLARIZABILITY TENSOR 
                      UX             UY             UZ
           UX     0.000524816    0.000010069    0.000008541
           UY     0.000011744    0.000538164    0.000001458
           UZ     0.000008952    0.000001424    0.000513789

           MEAN ALPHA POLARIZABILITY =     0.000525590


  LMO ALPHA POLARIZABILITY TENSOR FOR BOND BETWEEN ATOM  1 AND ATOM  3
                      UX             UY             UZ
           UX     0.297024537   -0.240560724    0.021572053
           UY    -0.226145799    0.832016375   -0.038743608
           UZ     0.022579786   -0.044515216    0.202248817

           MEAN ALPHA POLARIZABILITY =     0.443763243


  LMO ALPHA POLARIZABILITY TENSOR FOR BOND BETWEEN ATOM  1 AND ATOM  2
                      UX             UY             UZ
           UX     0.540417496    0.368216409    0.097433389
           UY     0.355259872    0.634108567    0.105407647
           UZ     0.093670217    0.104809884    0.243282466

           MEAN ALPHA POLARIZABILITY =     0.472602843


  LMO ALPHA POLARIZABILITY TENSOR FOR BOND BETWEEN ATOM  1 AND ATOM  5
                      UX             UY             UZ
           UX     0.617101316   -0.047312615   -0.377206887
           UY    -0.045829082    0.194076685    0.047469360
           UZ    -0.384724312    0.049424059    0.511578128

           MEAN ALPHA POLARIZABILITY =     0.440918710


  LMO ALPHA POLARIZABILITY TENSOR FOR BOND BETWEEN ATOM  1 AND ATOM  4
                      UX             UY             UZ
           UX     0.326731857   -0.019395293    0.301360452
           UY    -0.022338888    0.204964438   -0.058791682
           UZ     0.311632905   -0.054376975    0.848435115

           MEAN ALPHA POLARIZABILITY =     0.460043803


               -----------------------------------
                TOTAL ALPHA POLARIZABILITY TENSOR 
               -----------------------------------
                      UX             UY             UZ
           UX     1.781800022    0.060957847    0.043167547
           UY     0.060957847    1.865704228    0.055343175
           UZ     0.043167547    0.055343175    1.806058316

           MEAN ALPHA POLARIZABILITY =     1.817854189

 COMPUTING DYNAMIC POLARIZABILTY FOR IMAGINARY FREQUENCY   0.2332227I (A.U.)
 GMRES CONVERGED IN                     11 ITERATIONS
 GMRES CONVERGED IN                     11 ITERATIONS
 GMRES CONVERGED IN                     11 ITERATIONS

          -----------------------------------
           LOCALIZED ALPHA POLARIZABILITIES 
                 IN ANGSTROMS**3            
          -----------------------------------

           CORE ALPHA POLARIZABILITY TENSOR 
                      UX             UY             UZ
           UX     0.000509902    0.000009198    0.000007580
           UY     0.000010543    0.000523828    0.000002272
           UZ     0.000007903    0.000002248    0.000500484

           MEAN ALPHA POLARIZABILITY =     0.000511405


  LMO ALPHA POLARIZABILITY TENSOR FOR BOND BETWEEN ATOM  1 AND ATOM  3
                      UX             UY             UZ
           UX     0.274530183   -0.212494626    0.019376931
           UY    -0.201409792    0.750892428   -0.034470039
           UZ     0.020138279   -0.038787292    0.189213976

           MEAN ALPHA POLARIZABILITY =     0.404878862


  LMO ALPHA POLARIZABILITY TENSOR FOR BOND BETWEEN ATOM  1 AND ATOM  2
                      UX             UY             UZ
           UX     0.489554685    0.324760218    0.086251996
           UY     0.314859402    0.573907132    0.093200280
           UZ     0.083400351    0.092768617    0.226484545

           MEAN ALPHA POLARIZABILITY =     0.429982121


  LMO ALPHA POLARIZABILITY TENSOR FOR BOND BETWEEN ATOM  1 AND ATOM  5
                      UX             UY             UZ
           UX     0.558174552   -0.041965847   -0.335908657
           UY    -0.040934660    0.182344452    0.042603782
           UZ    -0.341922110    0.044068241    0.463450214

           MEAN ALPHA POLARIZABILITY =     0.401323073


  LMO ALPHA POLARIZABILITY TENSOR FOR BOND BETWEEN ATOM  1 AND ATOM  4
                      UX             UY             UZ
           UX     0.299548850   -0.017007161    0.267976801
           UY    -0.019223711    0.192402415   -0.051800511
           UZ     0.276080229   -0.048516029    0.761492073

           MEAN ALPHA POLARIZABILITY =     0.417814446


               -----------------------------------
                TOTAL ALPHA POLARIZABILITY TENSOR 
               -----------------------------------
                      UX             UY             UZ
           UX     1.622318173    0.053301782    0.037704652
           UY     0.053301782    1.700070255    0.049535785
           UZ     0.037704652    0.049535785    1.641141293

           MEAN ALPHA POLARIZABILITY =     1.654509907

 COMPUTING DYNAMIC POLARIZABILTY FOR IMAGINARY FREQUENCY   0.3858973I (A.U.)
 GMRES CONVERGED IN                     11 ITERATIONS
 GMRES CONVERGED IN                     11 ITERATIONS
 GMRES CONVERGED IN                     11 ITERATIONS

          -----------------------------------
           LOCALIZED ALPHA POLARIZABILITIES 
                 IN ANGSTROMS**3            
          -----------------------------------

           CORE ALPHA POLARIZABILITY TENSOR 
                      UX             UY             UZ
           UX     0.000486983    0.000007531    0.000005853
           UY     0.000008374    0.000500976    0.000003339
           UZ     0.000006050    0.000003332    0.000480412

           MEAN ALPHA POLARIZABILITY =     0.000489457


  LMO ALPHA POLARIZABILITY TENSOR FOR BOND BETWEEN ATOM  1 AND ATOM  3
                      UX             UY             UZ
           UX     0.230630008   -0.161222430    0.015316157
           UY    -0.155190808    0.597115648   -0.026575392
           UZ     0.015721984   -0.028787334    0.163298207

           MEAN ALPHA POLARIZABILITY =     0.330347954


  LMO ALPHA POLARIZABILITY TENSOR FOR BOND BETWEEN ATOM  1 AND ATOM  2
                      UX             UY             UZ
           UX     0.393706054    0.245379656    0.065670873
           UY     0.240041691    0.459573594    0.070651738
           UZ     0.064184137    0.070477107    0.193125120

           MEAN ALPHA POLARIZABILITY =     0.348801590


  LMO ALPHA POLARIZABILITY TENSOR FOR BOND BETWEEN ATOM  1 AND ATOM  5
                      UX             UY             UZ
           UX     0.446872145   -0.031961428   -0.258835135
           UY    -0.031521988    0.158721517    0.033271492
           UZ    -0.262457299    0.034046796    0.372724839

           MEAN ALPHA POLARIZABILITY =     0.326106167


  LMO ALPHA POLARIZABILITY TENSOR FOR BOND BETWEEN ATOM  1 AND ATOM  4
                      UX             UY             UZ
           UX     0.247473718   -0.012668794    0.205869015
           UY    -0.013802733    0.167124993   -0.039216871
           UZ     0.210571891   -0.037605595    0.599445722

           MEAN ALPHA POLARIZABILITY =     0.338014811


               -----------------------------------
                TOTAL ALPHA POLARIZABILITY TENSOR 
               -----------------------------------
                      UX             UY             UZ
           UX     1.319168909    0.039534536    0.028026763
           UY     0.039534536    1.383036729    0.038134307
           UZ     0.028026763    0.038134307    1.329074300

           MEAN ALPHA POLARIZABILITY =     1.343759979

 COMPUTING DYNAMIC POLARIZABILTY FOR IMAGINARY FREQUENCY   0.6491140I (A.U.)
 GMRES CONVERGED IN                     10 ITERATIONS
 GMRES CONVERGED IN                     10 ITERATIONS
 GMRES CONVERGED IN                     10 ITERATIONS

          -----------------------------------
           LOCALIZED ALPHA POLARIZABILITIES 
                 IN ANGSTROMS**3            
          -----------------------------------

           CORE ALPHA POLARIZABILITY TENSOR 
                      UX             UY             UZ
           UX     0.000468406    0.000005319    0.000003765
           UY     0.000005682    0.000480669    0.000003896
           UZ     0.000003862    0.000003915    0.000465094

           MEAN ALPHA POLARIZABILITY =     0.000471390


  LMO ALPHA POLARIZABILITY TENSOR FOR BOND BETWEEN ATOM  1 AND ATOM  3
                      UX             UY             UZ
           UX     0.164366360   -0.093538537    0.009711729
           UY    -0.092034218    0.380201245   -0.015893948
           UZ     0.009810404   -0.016355419    0.122573142

           MEAN ALPHA POLARIZABILITY =     0.222380249


  LMO ALPHA POLARIZABILITY TENSOR FOR BOND BETWEEN ATOM  1 AND ATOM  2
                      UX             UY             UZ
           UX     0.258623789    0.140930543    0.038170549
           UY     0.139579638    0.297495163    0.040552482
           UZ     0.037892241    0.040615541    0.141209811

           MEAN ALPHA POLARIZABILITY =     0.232442921


  LMO ALPHA POLARIZABILITY TENSOR FOR BOND BETWEEN ATOM  1 AND ATOM  5
                      UX             UY             UZ
           UX     0.290020110   -0.018367594   -0.153419811
           UY    -0.018319250    0.120799462    0.020102290
           UZ    -0.154704641    0.020323117    0.245066608

           MEAN ALPHA POLARIZABILITY =     0.218628727


  LMO ALPHA POLARIZABILITY TENSOR FOR BOND BETWEEN ATOM  1 AND ATOM  4
                      UX             UY             UZ
           UX     0.171578506   -0.007051524    0.121374268
           UY    -0.007253645    0.126551789   -0.022880712
           UZ     0.122838635   -0.022703147    0.376767994

           MEAN ALPHA POLARIZABILITY =     0.224966096


               -----------------------------------
                TOTAL ALPHA POLARIZABILITY TENSOR 
               -----------------------------------
                      UX             UY             UZ
           UX     0.885057171    0.021978207    0.015840501
           UY     0.021978207    0.925528328    0.021884008
           UZ     0.015840501    0.021884008    0.886082649

           MEAN ALPHA POLARIZABILITY =     0.898889382

 COMPUTING DYNAMIC POLARIZABILTY FOR IMAGINARY FREQUENCY   1.1539038I (A.U.)
 GMRES CONVERGED IN                      9 ITERATIONS
 GMRES CONVERGED IN                      9 ITERATIONS
 GMRES CONVERGED IN                      9 ITERATIONS

          -----------------------------------
           LOCALIZED ALPHA POLARIZABILITIES 
                 IN ANGSTROMS**3            
          -----------------------------------

           CORE ALPHA POLARIZABILITY TENSOR 
                      UX             UY             UZ
           UX     0.000471503    0.000003721    0.000002473
           UY     0.000003830    0.000480785    0.000003502
           UZ     0.000002527    0.000003541    0.000469861

           MEAN ALPHA POLARIZABILITY =     0.000474050


  LMO ALPHA POLARIZABILITY TENSOR FOR BOND BETWEEN ATOM  1 AND ATOM  3
                      UX             UY             UZ
           UX     0.092579975   -0.036632938    0.004364383
           UY    -0.036777763    0.176850833   -0.006483135
           UZ     0.004348876   -0.006395379    0.074787807

           MEAN ALPHA POLARIZABILITY =     0.114739538


  LMO ALPHA POLARIZABILITY TENSOR FOR BOND BETWEEN ATOM  1 AND ATOM  2
                      UX             UY             UZ
           UX     0.128793296    0.054045534    0.014753229
           UY     0.054120793    0.143261581    0.015300123
           UZ     0.014884311    0.015411424    0.082363104

           MEAN ALPHA POLARIZABILITY =     0.118139327


  LMO ALPHA POLARIZABILITY TENSOR FOR BOND BETWEEN ATOM  1 AND ATOM  5
                      UX             UY             UZ
           UX     0.141024976   -0.006865263   -0.060818336
           UY    -0.006877252    0.074886696    0.008198631
           UZ    -0.060990079    0.008222324    0.122975609

           MEAN ALPHA POLARIZABILITY =     0.112962427


  LMO ALPHA POLARIZABILITY TENSOR FOR BOND BETWEEN ATOM  1 AND ATOM  4
                      UX             UY             UZ
           UX     0.093711558   -0.002577981    0.047666750
           UY    -0.002496534    0.077548454   -0.009203285
           UZ     0.047722862   -0.009426074    0.173918981

           MEAN ALPHA POLARIZABILITY =     0.115059664


               -----------------------------------
                TOTAL ALPHA POLARIZABILITY TENSOR 
               -----------------------------------
                      UX             UY             UZ
           UX     0.456581307    0.007973073    0.005968498
           UY     0.007973073    0.473028350    0.007815836
           UZ     0.005968498    0.007815836    0.454515362

           MEAN ALPHA POLARIZABILITY =     0.461375006

 COMPUTING DYNAMIC POLARIZABILTY FOR IMAGINARY FREQUENCY   2.3075922I (A.U.)
 GMRES CONVERGED IN                      8 ITERATIONS
 GMRES CONVERGED IN                      8 ITERATIONS
 GMRES CONVERGED IN                      8 ITERATIONS

[...]
           UY    -0.000080871    0.006845218   -0.000278551
           UZ     0.001057518   -0.000274101    0.009144784

           MEAN ALPHA POLARIZABILITY =     0.007720945


               -----------------------------------
                TOTAL ALPHA POLARIZABILITY TENSOR 
               -----------------------------------
                      UX             UY             UZ
           UX     0.031221447    0.000096861    0.000072815
           UY     0.000096861    0.031412576    0.000063317
           UZ     0.000072815    0.000063317    0.031191529

           MEAN ALPHA POLARIZABILITY =     0.031275184

 COMPUTING DYNAMIC POLARIZABILTY FOR IMAGINARY FREQUENCY  32.2390801I (A.U.)
 GMRES CONVERGED IN                      5 ITERATIONS
 GMRES CONVERGED IN                      5 ITERATIONS
 GMRES CONVERGED IN                      5 ITERATIONS

          -----------------------------------
           LOCALIZED ALPHA POLARIZABILITIES 
                 IN ANGSTROMS**3            
          -----------------------------------

           CORE ALPHA POLARIZABILITY TENSOR 
                      UX             UY             UZ
           UX     0.000061205    0.000000163    0.000000106
           UY     0.000000164    0.000061591    0.000000164
           UZ     0.000000106    0.000000164    0.000061142

           MEAN ALPHA POLARIZABILITY =     0.000061313


  LMO ALPHA POLARIZABILITY TENSOR FOR BOND BETWEEN ATOM  1 AND ATOM  3
                      UX             UY             UZ
           UX     0.000264479   -0.000030006    0.000003390
           UY    -0.000029483    0.000318333   -0.000005665
           UZ     0.000003519   -0.000006057    0.000250535

           MEAN ALPHA POLARIZABILITY =     0.000277782


  LMO ALPHA POLARIZABILITY TENSOR FOR BOND BETWEEN ATOM  1 AND ATOM  2
                      UX             UY             UZ
           UX     0.000287112    0.000039192    0.000009514
           UY     0.000038667    0.000290575    0.000009342
           UZ     0.000009327    0.000009246    0.000251743

           MEAN ALPHA POLARIZABILITY =     0.000276477


  LMO ALPHA POLARIZABILITY TENSOR FOR BOND BETWEEN ATOM  1 AND ATOM  5
                      UX             UY             UZ
           UX     0.000297431   -0.000004867   -0.000041922
           UY    -0.000004691    0.000252420    0.000005660
           UZ    -0.000041820    0.000005811    0.000288392

           MEAN ALPHA POLARIZABILITY =     0.000279414


  LMO ALPHA POLARIZABILITY TENSOR FOR BOND BETWEEN ATOM  1 AND ATOM  4
                      UX             UY             UZ
           UX     0.000262149   -0.000002561    0.000030308
           UY    -0.000002734    0.000252529   -0.000008759
           UZ     0.000030262   -0.000008422    0.000320755

           MEAN ALPHA POLARIZABILITY =     0.000278478


               -----------------------------------
                TOTAL ALPHA POLARIZABILITY TENSOR 
               -----------------------------------
                      UX             UY             UZ
           UX     0.001172375    0.000001923    0.000001395
           UY     0.000001923    0.001175448    0.000000742
           UZ     0.000001395    0.000000742    0.001172567

           MEAN ALPHA POLARIZABILITY =     0.001173464

 ...... DONE WITH CPHF CONTRIBUTIONS ......
 STEP CPU TIME =     0.02 TOTAL CPU TIME =        0.4 (    0.0 MIN)
 TOTAL WALL CLOCK TIME=        0.6 SECONDS, CPU UTILIZATION IS  70.69%

 RUNTYP=MAKEFP IS NOW GENERATING EXCHANGE REPULSION DATA
 RUNTYP=MAKEFP HAS JUST FINISHED DOING THAT.

 RUNTYP=MAKEFP IS NOW GENERATING SCREENING PARAMETERS.


     ---------------------------------------
     EFFECTIVE POTENTIAL SCREENING PARAMETER
              OPTIMIZATION PROGRAM
     ---------------------------------------
     AUTHORS: WALT STEVENS, MARK FREITAG, LYUDMILA SLIPCHENKO

 THE $DAMP INPUT DATA FOR THIS RUN IS:
 ISCCHG =     0
 THRSH  = 500.0
 MAXIT  =    30
 NMAIN  =     5
 INITIAL FIT WILL USE EXP. CH-CH  FORM WITH    FIXED LINEAR COEFICIENTS
  SECOND FIT WILL USE    GAUSSIAN FORM WITH    FIXED LINEAR COEFICIENTS

 THE CLASSICAL MULTIPOLE EXPANSION TO BE SCREENED IS

 CENTERS OF THE DISTRIBUTED MULTIPOLE EXPANSION, X,Y,Z
     C          4.95108   5.25344   5.55579
     H          3.55268   3.66607   5.15895
     H          4.21409   7.19986   5.42351
     H          5.83925   5.08336   7.48331
     H          6.51955   5.06447   4.19519
     BO21       4.25188   4.45975   5.35737
     BO31       4.58259   6.22665   5.48965
     BO41       5.39517   5.16840   6.51955
     BO51       5.73532   5.15895   4.87549

 CHARGES             Q
     C         -5.67614
     H         -0.75502
     H         -0.75810
     H         -0.77356
     H         -0.77343
     BO21      -0.28617
     BO31      -0.33078
     BO41      -0.28886
     BO51      -0.35793

 DIPOLES             X         Y         Z
     C         -0.01299   0.00379  -0.00508
     H         -0.02917  -0.03692  -0.00992
     H         -0.01286   0.04272  -0.00151
     H          0.02051  -0.00201   0.04096
     H          0.03304  -0.00437  -0.02773
     BO21       0.20642   0.18151   0.03588
     BO31       0.13982  -0.22592   0.00513
     BO41      -0.07904   0.06663  -0.26288
     BO51      -0.19114   0.02090   0.17572

 QUADRUPOLES        XX        YY        ZZ        XY        XZ        YZ
     C         -3.78121  -3.77573  -3.77923  -0.00555  -0.00342   0.00228
     H         -0.48748  -0.48960  -0.48874   0.00016  -0.00016  -0.00048
     H         -0.48299  -0.48320  -0.48401  -0.00163   0.00032  -0.00060
     H         -0.50697  -0.50661  -0.50510  -0.00030   0.00012  -0.00076
     H         -0.49970  -0.50117  -0.49956  -0.00005  -0.00156   0.00008
     BO21      -0.19754  -0.20508  -0.18801  -0.00868  -0.00617  -0.00036
     BO31      -0.25585  -0.27186  -0.26045  -0.00304  -0.01701   0.00211
     BO41      -0.20109  -0.19423  -0.20810  -0.01542  -0.01532  -0.00002
     BO51      -0.31732  -0.32002  -0.31850  -0.00015  -0.00224   0.00038

 OCTUPOLES
     C         -0.03229  -0.05246  -0.12939   0.06752   0.05907
                0.14332   0.02443  -0.14191   0.04072   0.01105
     H         -0.04410  -0.05698  -0.01622  -0.01696  -0.00470
               -0.01253  -0.00469  -0.01553  -0.01990   0.00073
     H         -0.01939   0.06073  -0.00218   0.02127  -0.00060
               -0.00334  -0.00000  -0.00664   0.02266  -0.00031
     H          0.03264  -0.00300   0.05829  -0.00083   0.02058
                0.01103   0.02187   0.00781  -0.00009   0.00040
     H          0.04816  -0.00702  -0.04089  -0.00186  -0.01080
                0.01744  -0.01459   0.01408  -0.00196  -0.00043
     BO21       0.82449   0.70979   0.14467   0.23180   0.03516
                0.26302   0.04300   0.29113   0.22656   0.00152
     BO31       0.56133  -0.83594  -0.00606  -0.28072  -0.01230
                0.18353   0.00147   0.19380  -0.27899   0.00137
     BO41      -0.27054   0.31282  -1.03062   0.09583  -0.35420
               -0.10779  -0.34124  -0.08348   0.09260   0.00282
     BO51      -0.71465   0.07618   0.65935   0.02544   0.22074
               -0.23815   0.21890  -0.23893   0.02533  -0.00029


                         *****   WARNING   *****
 NO $DAMPGS CHARGE PENETRATION SCREENING INPUT WAS FOUND, CONTINUING...
   THIS INPUT GROUP LETS YOU ASSIGN EXACTLY EQUAL SCREENING EXPONENTS
   TO ANY SYMMETRY EQUIVALENT ATOMS AND BOND CENTERS, AND IT IS USUALLY
   A VERY GOOD IDEA TO ENTER THIS DATA.


 NUMBER OF OPTIMIZED PARAMETERS IS   9

 INITIAL VALUES OF SCREENING PARAMETERS ARE:
 NAME        COEF       EXP
 C          1.00000   2.00000
 H          1.00000   2.00000
 H          1.00000   2.00000
 H          1.00000   2.00000
 H          1.00000   2.00000
 BO21       1.00000   4.00000
 BO31       1.00000   4.00000
 BO41       1.00000   4.00000
 BO51       1.00000   4.00000

 QUANTUM ELECTROSTATIC POTENTIAL GRID IS GENERATED BY $PDC PTSEL=GEODESIC
 POINT SELECTION IS USING VDWSCL=  0.700
  MEMORY FOR PDCPTS:                 307920
 GAVEZZOTTI RADII USED FOR CHARGE FITTING
          EFP CENTER      VDW RADIUS
          C               2.83 BOHR
          H               2.27 BOHR
          H               2.27 BOHR
          H               2.27 BOHR
          H               2.27 BOHR
 RADIUS FOR BOND MID-POINT BETWEEN ATOMS  2 AND  1
          BO21            2.55 BOHR
 RADIUS FOR BOND MID-POINT BETWEEN ATOMS  3 AND  1
          BO31            2.55 BOHR
 RADIUS FOR BOND MID-POINT BETWEEN ATOMS  4 AND  1
          BO41            2.55 BOHR
 RADIUS FOR BOND MID-POINT BETWEEN ATOMS  5 AND  1
          BO51            2.55 BOHR
 {3,5+}NH,NK TEMPLATE USED, NH= 3 NK= 0
 NUMBER OF POINTS SELECTED FOR FITTING =    4212

  TO SIMULATE EVEN POINT DENSITY IN GEODES GRID
  TOTAL NUMBER OF POINTS WAS ARTIFICIALLY INCREASED
  TO      28698
 DAMPING COMPUTATION NEEDS       46593 WORDS
 PLUS       225552 WORDS

 ----- THE ELECTROSTATIC POTENTIAL GRID CONTAINS     4212 POINTS -----
 ----- THE QUANTUM POTENTIAL HAS BEEN GENERATED ON THE GRID -----
 ----- THE UNSCREENED CLASSICAL POTENTIAL GRID HAS BEEN GENERATED -----
 ELECTROSTATIC POTENTIAL CPU TIME: QUANTUM=     0.1, CLASSICAL=    0.00

 *** SINGLE EXPONENTIAL USED AS DAMPING FUNCTION ***
  CHARGE-CHARGE SCREENING WILL BE PERFORMED 

 FITTING SCREENED MULTIPOLE CLASSICAL POTENTIAL TO THE QUANTUM POTENTIAL...
  INITIAL ALPHAS ARE    2.000   2.000   2.000   2.000   2.000   4.000   4.000   4.000   4.000
 INITIAL CHI^2 =       2.41721307
 POWELL PROCEDURE, ITERATION      1 CHI^2 =       0.86650649
 POWELL PROCEDURE, ITERATION      2 CHI^2 =       0.72544037
 POWELL PROCEDURE, ITERATION      3 CHI^2 =       0.67119310
 POWELL PROCEDURE, ITERATION      4 CHI^2 =       0.77797492
 POWELL PROCEDURE, ITERATION      5 CHI^2 =       0.76452829
 POWELL PROCEDURE, ITERATION      6 CHI^2 =       0.61496447
 POWELL PROCEDURE, ITERATION      7 CHI^2 =       0.59821299
 POWELL PROCEDURE, ITERATION      8 CHI^2 =       0.58394143
 POWELL PROCEDURE, ITERATION      9 CHI^2 =       0.58165814
 POWELL PROCEDURE, ITERATION     10 CHI^2 =       0.57593746
 POWELL PROCEDURE, ITERATION     11 CHI^2 =       0.57550237
 POWELL PROCEDURE, ITERATION     12 CHI^2 =       0.57526484
 POWELL PROCEDURE, ITERATION     13 CHI^2 =       0.57505276
 POWELL PROCEDURE, ITERATION     14 CHI^2 =       0.57474837
 POWELL PROCEDURE, ITERATION     15 CHI^2 =       0.57462953
 POWELL PROCEDURE, ITERATION     16 CHI^2 =       0.57441668
 POWELL PROCEDURE, ITERATION     17 CHI^2 =       0.57440914
 POWELL PROCEDURE, ITERATION     18 CHI^2 =       0.57435028
 POWELL PROCEDURE, ITERATION     19 CHI^2 =       0.57434279
 FUNCTION WAS EVALUATED   2137 TIMES
 POWELL MINIMIZATION PROCEDURE CONVERGED IN    20 ITERATIONS
 ENDING VALUE OF CHI^2 IS      0.57433653
 OPTIMIZED NONLINEAR PARAMETERS ARE
    1.8619   1.7520   1.7464   1.7066   1.7166   1.3749   1.6460   1.7106
   1.9630
 POWELL PROCEDURE REQUIRED     3.2 SECONDS

               ----- OPTIMIZED SCREENING PARAMETERS ----- 
 NAME          X        Y        Z               COEF                 ALPHA
 C          4.9511   5.2534   5.5558         1.0000000000         1.8619480253
 H          3.5527   3.6661   5.1590         1.0000000000         1.7519635783
 H          4.2141   7.1999   5.4235         1.0000000000         1.7463951125
 H          5.8393   5.0834   7.4833         1.0000000000         1.7066282706
 H          6.5196   5.0645   4.1952         1.0000000000         1.7166272070
 BO21       4.2519   4.4598   5.3574         1.0000000000         1.3749300170
 BO31       4.5826   6.2266   5.4897         1.0000000000         1.6459687454
 BO41       5.3952   5.1684   6.5196         1.0000000000         1.7105960311
 BO51       5.7353   5.1590   4.8755         1.0000000000         1.9629549094

 STATISTICS FOR UNSCREENED MULTIPOLES
 ------------------------------------
 AVERAGE UNSIGNED ERROR        (      4212 PTS) = 5.400665E+00
 RMS DEVIATION                 (      4212 PTS) = 1.229342E+01
 RMS DEVIATION (ERR > THRSH/8) (         3 PTS) = 8.141396E+01
 RMS DEVIATION (ERR > THRSH/4) (         0 PTS) = 0.000000E+00
 RMS DEVIATION (ERR > THRSH/2) (         0 PTS) = 0.000000E+00
 RMS DEVIATION (ERR > THRSH)   (         0 PTS) = 0.000000E+00
 
 EFFECTIVE AV. UNSIGNED ERROR  (     28698 PTS) = 7.926546E-01
 EFFECTIVE RMS DEVIATION       (     28698 PTS) = 4.709200E+00


 STATISTICS FOR SCREENED MULTIPOLES
 ----------------------------------
 AVERAGE UNSIGNED ERROR        (      4212 PTS) = 6.346529E-01
 RMS DEVIATION                 (      4212 PTS) = 1.310384E+00
 RMS DEVIATION (ERR > THRSH/8) (         0 PTS) = 0.000000E+00
 RMS DEVIATION (ERR > THRSH/4) (         0 PTS) = 0.000000E+00
 RMS DEVIATION (ERR > THRSH/2) (         0 PTS) = 0.000000E+00
 RMS DEVIATION (ERR > THRSH)   (         0 PTS) = 0.000000E+00
 
 EFFECTIVE AV. UNSIGNED ERROR  (     28698 PTS) = 9.314788E-02
 EFFECTIVE RMS DEVIATION       (     28698 PTS) = 5.019644E-01


 GRID POINTS WITH ERRORS (QUANTUM - EITHER FIT) GREATER THAN  500.00 KCAL/MOL
   POINT  CENTER  DISTANCE   X     Y       Z    QUANTUM      DIFF      DIFF   
                  FROM ORIGIN                              SCREEN  NOSCREEN

 ..... DONE WITH CHARGE PENETRATION SCREENING .....
 STEP CPU TIME =     3.30 TOTAL CPU TIME =        3.7 (    0.1 MIN)
 TOTAL WALL CLOCK TIME=        3.9 SECONDS, CPU UTILIZATION IS  95.37%

 *** SINGLE GAUSSIAN USED AS DAMPING FUNCTION ***

 FITTING SCREENED MULTIPOLE CLASSICAL POTENTIAL TO THE QUANTUM POTENTIAL...
  INITIAL ALPHAS ARE    1.084   1.084   1.084   1.084   1.084   4.335   4.335   4.335   4.335
 INITIAL CHI^2 =       3.30836327
 POWELL PROCEDURE, ITERATION      1 CHI^2 =       1.66574060
 POWELL PROCEDURE, ITERATION      2 CHI^2 =       1.53389469
 POWELL PROCEDURE, ITERATION      3 CHI^2 =       1.52401758
 POWELL PROCEDURE, ITERATION      4 CHI^2 =       1.51358521
 POWELL PROCEDURE, ITERATION      5 CHI^2 =       1.47277535
 POWELL PROCEDURE, ITERATION      6 CHI^2 =       1.43709320
 POWELL PROCEDURE, ITERATION      7 CHI^2 =       2.35704006
 POWELL PROCEDURE, ITERATION      8 CHI^2 =       1.65455752
 POWELL PROCEDURE, ITERATION      9 CHI^2 =       1.35559518
 POWELL PROCEDURE, ITERATION     10 CHI^2 =       1.21238411
 POWELL PROCEDURE, ITERATION     11 CHI^2 =       1.15926787
 POWELL PROCEDURE, ITERATION     12 CHI^2 =       1.12453305
 POWELL PROCEDURE, ITERATION     13 CHI^2 =       1.09967222
 POWELL PROCEDURE, ITERATION     14 CHI^2 =       1.08119738
 POWELL PROCEDURE, ITERATION     15 CHI^2 =       1.06706298
 POWELL PROCEDURE, ITERATION     16 CHI^2 =       1.05596940
 POWELL PROCEDURE, ITERATION     17 CHI^2 =       1.04706301
 POWELL PROCEDURE, ITERATION     18 CHI^2 =       1.03976997
 POWELL PROCEDURE, ITERATION     19 CHI^2 =       1.03369910
 POWELL PROCEDURE, ITERATION     20 CHI^2 =       1.02857782
 POWELL PROCEDURE, ITERATION     21 CHI^2 =       1.02421267
 POWELL PROCEDURE, ITERATION     22 CHI^2 =       1.02046027
 POWELL PROCEDURE, ITERATION     23 CHI^2 =       1.01721507
 POWELL PROCEDURE, ITERATION     24 CHI^2 =       1.01440093
 POWELL PROCEDURE, ITERATION     25 CHI^2 =       1.01194739
 POWELL PROCEDURE, ITERATION     26 CHI^2 =       1.00980264
 POWELL PROCEDURE, ITERATION     27 CHI^2 =       1.00792416
 POWELL PROCEDURE, ITERATION     28 CHI^2 =       1.00627619
 POWELL PROCEDURE, ITERATION     29 CHI^2 =       1.00482901
 POWELL EXCEEDING MAXIMUM ITERATIONS
 POWELL PROCEDURE REQUIRED     4.9 SECONDS

               ----- OPTIMIZED SCREENING PARAMETERS ----- 
 NAME          X        Y        Z               COEF                 ALPHA
 C          4.9511   5.2534   5.5558         1.0000000000         1.5793962236
 H          3.5527   3.6661   5.1590         1.0000000000         2.6232217494
 H          4.2141   7.1999   5.4235         1.0000000000         1.0222595216
 H          5.8393   5.0834   7.4833         1.0000000000         1.5318013857
 H          6.5196   5.0645   4.1952         1.0000000000         0.9852192869
 BO21       4.2519   4.4598   5.3574         1.0000000000         0.2873648622
 BO31       4.5826   6.2266   5.4897         1.0000000000         0.6011607332
 BO41       5.3952   5.1684   6.5196         1.0000000000         0.3386872614
 BO51       5.7353   5.1590   4.8755         1.0000000000         0.6858787389

 STATISTICS FOR UNSCREENED MULTIPOLES
 ------------------------------------
 AVERAGE UNSIGNED ERROR        (      4212 PTS) = 5.400665E+00
 RMS DEVIATION                 (      4212 PTS) = 1.229342E+01
 RMS DEVIATION (ERR > THRSH/8) (         3 PTS) = 8.141396E+01
 RMS DEVIATION (ERR > THRSH/4) (         0 PTS) = 0.000000E+00
 RMS DEVIATION (ERR > THRSH/2) (         0 PTS) = 0.000000E+00
 RMS DEVIATION (ERR > THRSH)   (         0 PTS) = 0.000000E+00
 
 EFFECTIVE AV. UNSIGNED ERROR  (     28698 PTS) = 7.926546E-01
 EFFECTIVE RMS DEVIATION       (     28698 PTS) = 4.709200E+00


 STATISTICS FOR SCREENED MULTIPOLES
 ----------------------------------
 AVERAGE UNSIGNED ERROR        (      4212 PTS) = 1.031364E+00
 RMS DEVIATION                 (      4212 PTS) = 2.203080E+00
 RMS DEVIATION (ERR > THRSH/8) (         0 PTS) = 0.000000E+00
 RMS DEVIATION (ERR > THRSH/4) (         0 PTS) = 0.000000E+00
 RMS DEVIATION (ERR > THRSH/2) (         0 PTS) = 0.000000E+00
 RMS DEVIATION (ERR > THRSH)   (         0 PTS) = 0.000000E+00
 
 EFFECTIVE AV. UNSIGNED ERROR  (     28698 PTS) = 1.513731E-01
 EFFECTIVE RMS DEVIATION       (     28698 PTS) = 8.439267E-01


 GRID POINTS WITH ERRORS (QUANTUM - EITHER FIT) GREATER THAN  500.00 KCAL/MOL
   POINT  CENTER  DISTANCE   X     Y       Z    QUANTUM      DIFF      DIFF   
                  FROM ORIGIN                              SCREEN  NOSCREEN

 ..... DONE WITH CHARGE PENETRATION SCREENING .....
 STEP CPU TIME =     4.85 TOTAL CPU TIME =        8.6 (    0.1 MIN)
 TOTAL WALL CLOCK TIME=        8.8 SECONDS, CPU UTILIZATION IS  97.83%

 PROCESSING $STONE INPUT...
 THE NUMBER OF "BOUNDARY" CORE MOS IS  0
 THE NUMBER OF MOS WITH ZERO OCCUPATION NUMBER IS  0
  
  ****************************************
  MULTIPOLE EXPANSION FOR EVERY LMO AT ITS
  CENTROID USING ITS OWN ELECTRON DENSITY 
     - NANDUN THELLAMUREGE AND HUI LI -   
  ****************************************
  
 MULTIPOLE EXPANSION FOR LMO             1
 TOTAL ELECTRON CHARGE =     -2.0000000000
 MULTIPOLE EXPANSION FOR LMO             2
 TOTAL ELECTRON CHARGE =     -2.0000000000
 MULTIPOLE EXPANSION FOR LMO             3
 TOTAL ELECTRON CHARGE =     -2.0000000000
 MULTIPOLE EXPANSION FOR LMO             4
 TOTAL ELECTRON CHARGE =     -2.0000000000
 MULTIPOLE EXPANSION FOR LMO             5
 TOTAL ELECTRON CHARGE =     -2.0000000000
  
  DONE WITH LMO EXPANSION.
 STEP CPU TIME =     0.00 TOTAL CPU TIME =        8.6 (    0.1 MIN)
 TOTAL WALL CLOCK TIME=        8.8 SECONDS, CPU UTILIZATION IS  97.83%
               2001912  WORDS OF DYNAMIC MEMORY USED
 EXECUTION OF GAMESS TERMINATED NORMALLY Mon Dec 28 15:10:49 2020
 DDI: 263624 bytes (0.3 MB / 0 MWords) used by master data server.

 ----------------------------------------
 CPU timing information for all processes
 ========================================
 0: 8.531 + 0.44 = 8.575
 ----------------------------------------
 ddikick.x: exited gracefully.
----- accounting info -----
Files used on the master node halstead-a047.rcac.purdue.edu were:
-rw-r--r-- 1 cviquezr student     476 Dec 28 15:10 /scratch/halstead/c/cviquezr/mol1_79_s.F05
-rw-r--r-- 1 cviquezr student  182232 Dec 28 15:10 /scratch/halstead/c/cviquezr/mol1_79_s.F09
-rw-r--r-- 1 cviquezr student 1243360 Dec 28 15:10 /scratch/halstead/c/cviquezr/mol1_79_s.F10
-rw-r--r-- 1 cviquezr student   64808 Dec 28 15:10 /scratch/halstead/c/cviquezr/mol1_79_s.F16
-rw-r--r-- 1 cviquezr student   64808 Dec 28 15:10 /scratch/halstead/c/cviquezr/mol1_79_s.F67
Mon Dec 28 15:10:52 EST 2020
0.217u 0.076s 0:12.06 2.3%	0+0k 0+8io 0pf+0w
