----- GAMESS execution script 'rungms' -----
This job is running on host halstead-a047.rcac.purdue.edu
under operating system Linux at Mon Dec 28 15:10:21 EST 2020
Available scratch disk space (Kbyte units) at beginning of the job is
Filesystem         1K-blocks          Used     Available Use% Mounted on
f02            2459942518784 1349402624000 1110539894784  55% /scratch/halstead
GAMESS temporary binary files will be written to /scratch/halstead/c/cviquezr
GAMESS supplementary output files will be written to /home/cviquezr/scr
Copying input file mol1_63_s.inp to your run's scratch directory...
The generated host list is
localhost

 Distributed Data Interface kickoff program.
 Initiating 1 compute processes on 1 nodes to run the following command:
 /depot/lslipche/apps/gamess/gamess_lyuda/gamess.03.x mol1_63_s 

          ******************************************************
          *         GAMESS VERSION =  1 MAY 2012 (R1)          *
          *             FROM IOWA STATE UNIVERSITY             *
          * M.W.SCHMIDT, K.K.BALDRIDGE, J.A.BOATZ, S.T.ELBERT, *
          *   M.S.GORDON, J.H.JENSEN, S.KOSEKI, N.MATSUNAGA,   *
          *          K.A.NGUYEN, S.J.SU, T.L.WINDUS,           *
          *       TOGETHER WITH M.DUPUIS, J.A.MONTGOMERY       *
          *         J.COMPUT.CHEM.  14, 1347-1363(1993)        *
          **************** 64 BIT INTEL VERSION ****************

  SINCE 1993, STUDENTS AND POSTDOCS WORKING AT IOWA STATE UNIVERSITY
  AND ALSO IN THEIR VARIOUS JOBS AFTER LEAVING ISU HAVE MADE IMPORTANT
  CONTRIBUTIONS TO THE CODE:
     IVANA ADAMOVIC, CHRISTINE AIKENS, YURI ALEXEEV, POOJA ARORA,
     ANDREY ASADCHEV, ROB BELL, PRADIPTA BANDYOPADHYAY, JONATHAN BENTZ,
     BRETT BODE, GALINA CHABAN, WEI CHEN, CHEOL HO CHOI, PAUL DAY,
     ALBERT DEFUSCO, TIM DUDLEY, DMITRI FEDOROV, GRAHAM FLETCHER,
     MARK FREITAG, KURT GLAESEMANN, DAN KEMP, GRANT MERRILL,
     NORIYUKI MINEZAWA, JONATHAN MULLIN, TAKESHI NAGATA,
     SEAN NEDD, HEATHER NETZLOFF, BOSILJKA NJEGIC, RYAN OLSON, MIKE PAK,
     JIM SHOEMAKER, LYUDMILA SLIPCHENKO, SAROM SOK, JIE SONG,
     TETSUYA TAKETSUGU, SIMON WEBB, SOOHAENG YOO, FEDERICO ZAHARIEV

  ADDITIONAL CODE HAS BEEN PROVIDED BY COLLABORATORS IN OTHER GROUPS:
     IOWA STATE UNIVERSITY:
          JOE IVANIC, LAIMUTIS BYTAUTAS, KLAUS RUEDENBERG
     UNIVERSITY OF TOKYO: KIMIHIKO HIRAO, TAKAHITO NAKAJIMA,
          TAKAO TSUNEDA, MUNEAKI KAMIYA, SUSUMU YANAGISAWA,
          KIYOSHI YAGI, MAHITO CHIBA, SEIKEN TOKURA, NAOAKI KAWAKAMI
     UNIVERSITY OF AARHUS: FRANK JENSEN
     UNIVERSITY OF IOWA: VISVALDAS KAIRYS, HUI LI
     NATIONAL INST. OF STANDARDS AND TECHNOLOGY: WALT STEVENS, DAVID GARMER
     UNIVERSITY OF PISA: BENEDETTA MENNUCCI, JACOPO TOMASI
     UNIVERSITY OF MEMPHIS: HENRY KURTZ, PRAKASHAN KORAMBATH
     UNIVERSITY OF ALBERTA: TOBY ZENG, MARIUSZ KLOBUKOWSKI
     UNIVERSITY OF NEW ENGLAND: MARK SPACKMAN
     MIE UNIVERSITY: HIROAKI UMEDA
     MICHIGAN STATE UNIVERSITY:
          KAROL KOWALSKI, MARTA WLOCH, JEFFREY GOUR, JESSE LUTZ, PIOTR PIECUCH
     UNIVERSITY OF SILESIA: MONIKA MUSIAL, STANISLAW KUCHARSKI
     FACULTES UNIVERSITAIRES NOTRE-DAME DE LA PAIX:
          OLIVIER QUINET, BENOIT CHAMPAGNE
     UNIVERSITY OF CALIFORNIA - SANTA BARBARA: BERNARD KIRTMAN
     INSTITUTE FOR MOLECULAR SCIENCE:
          KAZUYA ISHIMURA, MICHIO KATOUDA, AND SHIGERU NAGASE
     UNIVERSITY OF NOTRE DAME: DAN CHIPMAN
     KYUSHU UNIVERSITY:
          HARUYUKI NAKANO,
          FENG LONG GU, JACEK KORCHOWIEC, MARCIN MAKOWSKI, AND YURIKO AOKI,
          HIROTOSHI MORI AND EISAKU MIYOSHI
     PENNSYLVANIA STATE UNIVERSITY:
          TZVETELIN IORDANOV, CHET SWALINA, JONATHAN SKONE,
          SHARON HAMMES-SCHIFFER
     WASEDA UNIVERSITY:
          MASATO KOBAYASHI, TOMOKO AKAMA, TSUGUKI TOUMA,
          TAKESHI YOSHIKAWA, YASUHIRO IKABATA, HIROMI NAKAI
     UNIVERSITY OF NEBRASKA:
          PEIFENG SU, DEJUN SI, NANDUN THELLAMUREGE, YALI WANG, HUI LI
     UNIVERSITY OF ZURICH:
          ROBERTO PEVERATI, KIM BALDRIDGE
     N. COPERNICUS UNIVERSITY AND JACKSON STATE UNIVERSITY:
          MARIA BARYSZ

 EXECUTION OF GAMESS BEGUN Mon Dec 28 15:10:22 2020

            ECHO OF THE FIRST FEW INPUT CARDS -
 INPUT CARD> $contrl units=angs local=boys runtyp=makefp                                    
 INPUT CARD> mult=1 icharg=0 icut=11 $end                                                   
 INPUT CARD> $system timlim=99999   mwords=500 $end                                         
 INPUT CARD> $scf soscf=.f. dirscf=.t. diis=.t. CONV=1.0d-06  $end                          
 INPUT CARD> $basis gbasis=n31 ngauss=6 npfunc=0 ndfunc=1 nffunc=0                          
 INPUT CARD> diffs=.f. diffsp=.f. $end                                                      
 INPUT CARD> $DAMP IFTTYP(1)=2,0 IFTFIX(1)=1,1 thrsh=500.0 $end                             
 INPUT CARD> $MAKEFP  POL=.t. DISP=.t. CHTR=.f.  EXREP=.t. $end                             
 INPUT CARD> $data                                                                          
 INPUT CARD> mol1_63                                                                        
 INPUT CARD> C1                                                                             
 INPUT CARD>C 6 2.64 2.77 2.89                                                              
 INPUT CARD>H 1 1.97 2.04 2.59                                                              
 INPUT CARD>H 1 2.05 3.69 2.71                                                              
 INPUT CARD>H 1 2.91 2.65 3.92                                                              
 INPUT CARD>H 1 3.54 2.76 2.26                                                              
 INPUT CARD> $end                                                                           
  500000000 WORDS OF MEMORY AVAILABLE

     BASIS OPTIONS
     -------------
     GBASIS=N31          IGAUSS=       6      POLAR=POPN31  
     NDFUNC=       1     NFFUNC=       0     DIFFSP=       F
     NPFUNC=       0      DIFFS=       F     BASNAM=        


     RUN TITLE
     ---------
  mol1_63                                                                        

 THE POINT GROUP OF THE MOLECULE IS C1      
 THE ORDER OF THE PRINCIPAL AXIS IS     0

 ATOM      ATOMIC                      COORDINATES (BOHR)
           CHARGE         X                   Y                   Z
 C           6.0     4.9888766076        5.2345409860        5.4613081045
 H           1.0     3.7227601958        3.8550410150        4.8943903082
 H           1.0     3.8739382748        6.9730888947        5.1211574267
 H           1.0     5.4991026243        5.0077738675        7.4077258719
 H           1.0     6.6896299965        5.2156437261        4.2707807323

          INTERNUCLEAR DISTANCES (ANGS.)
          ------------------------------

                1 C          2 H          3 H          4 H          5 H     

   1 C       0.0000000    1.0352777 *  1.1076552 *  1.0715409 *  1.0986355 *
   2 H       1.0352777 *  0.0000000    1.6562910 *  1.7391377 *  1.7584652 *
   3 H       1.1076552 *  1.6562910 *  0.0000000    1.8125397 *  1.8131464 *
   4 H       1.0715409 *  1.7391377 *  1.8125397 *  0.0000000    1.7789323 *
   5 H       1.0986355 *  1.7584652 *  1.8131464 *  1.7789323 *  0.0000000  

  * ... LESS THAN  3.000


     ATOMIC BASIS SET
     ----------------
 THE CONTRACTED PRIMITIVE FUNCTIONS HAVE BEEN UNNORMALIZED
 THE CONTRACTED BASIS FUNCTIONS ARE NOW NORMALIZED TO UNITY

  SHELL TYPE  PRIMITIVE        EXPONENT          CONTRACTION COEFFICIENT(S)

 C         

      1   S       1          3047.5248800    0.001834737132
      1   S       2           457.3695180    0.014037322813
      1   S       3           103.9486850    0.068842622264
      1   S       4            29.2101553    0.232184443216
      1   S       5             9.2866630    0.467941348435
      1   S       6             3.1639270    0.362311985337

      2   L       7             7.8682723   -0.119332419775    0.068999066591
      2   L       8             1.8812885   -0.160854151696    0.316423960957
      2   L       9             0.5442493    1.143456437840    0.744308290898

      3   L      10             0.1687145    1.000000000000    1.000000000000

      4   D      11             0.8000000    1.000000000000

 H         

      5   S      12            18.7311370    0.033494604338
      5   S      13             2.8253944    0.234726953484
      5   S      14             0.6401217    0.813757326146

      6   S      15             0.1612778    1.000000000000

 H         

      7   S      16            18.7311370    0.033494604338
      7   S      17             2.8253944    0.234726953484
      7   S      18             0.6401217    0.813757326146

      8   S      19             0.1612778    1.000000000000

 H         

      9   S      20            18.7311370    0.033494604338
      9   S      21             2.8253944    0.234726953484
      9   S      22             0.6401217    0.813757326146

     10   S      23             0.1612778    1.000000000000

 H         

     11   S      24            18.7311370    0.033494604338
     11   S      25             2.8253944    0.234726953484
     11   S      26             0.6401217    0.813757326146

     12   S      27             0.1612778    1.000000000000

 TOTAL NUMBER OF BASIS SET SHELLS             =   12
 NUMBER OF CARTESIAN GAUSSIAN BASIS FUNCTIONS =   23
 NUMBER OF ELECTRONS                          =   10
 CHARGE OF MOLECULE                           =    0
 SPIN MULTIPLICITY                            =    1
 NUMBER OF OCCUPIED ORBITALS (ALPHA)          =    5
 NUMBER OF OCCUPIED ORBITALS (BETA )          =    5
 TOTAL NUMBER OF ATOMS                        =    5
 THE NUCLEAR REPULSION ENERGY IS       13.5924126586

     $CONTRL OPTIONS
     ---------------
 SCFTYP=RHF          RUNTYP=MAKEFP       EXETYP=RUN     
 MPLEVL=       0     CITYP =NONE         CCTYP =NONE         VBTYP =NONE    
 DFTTYP=NONE         TDDFT =NONE    
 MULT  =       1     ICHARG=       0     NZVAR =       0     COORD =UNIQUE  
 PP    =NONE         RELWFN=NONE         LOCAL =BOYS         NUMGRD=       F
 ISPHER=      -1     NOSYM =       0     MAXIT =      30     UNITS =ANGS    
 PLTORB=       F     MOLPLT=       F     AIMPAC=       F     FRIEND=        
 NPRINT=       7     IREST =       0     GEOM  =INPUT   
 NORMF =       0     NORMP =       0     ITOL  =      20     ICUT  =      11
 INTTYP=BEST         GRDTYP=BEST         QMTTOL= 1.0E-06

     $SYSTEM OPTIONS
     ---------------
  REPLICATED MEMORY=   500000000 WORDS (ON EVERY NODE).
 DISTRIBUTED MEMDDI=           0 MILLION WORDS IN AGGREGATE,
 MEMDDI DISTRIBUTED OVER   1 PROCESSORS IS           0 WORDS/PROCESSOR.
 TOTAL MEMORY REQUESTED ON EACH PROCESSOR=   500000000 WORDS.
 TIMLIM=       99999.00 MINUTES, OR      69.4 DAYS.
 PARALL= F  BALTYP=  DLB     KDIAG=    0  COREFL= F
 MXSEQ2=     300 MXSEQ3=     150

     INPUT FOR POTENTIAL-DERIVED CHARGES 
     -----------------------------------
     VDWSCL=    0.00   RMAX=    3.00   DELR=    0.80
     VDWINC=    0.10 PTDENS=    0.28
     LAYER =      25  NFREQ=      30 MAXPDC=  100000
     CONSTR=CHARGE    UNITS=ANGS      PTSEL=GEODESIC
     CENTER=  0.0000  0.0000  0.0000
     DPOLE =  0.0000  0.0000  0.0000
     QPOLE =  0.0000  0.0000  0.0000  0.0000  0.0000  0.0000


          ----------------
          PROPERTIES INPUT
          ----------------

     MOMENTS            FIELD           POTENTIAL          DENSITY
 IEMOM =       1   IEFLD =       0   IEPOT =       0   IEDEN =       0
 WHERE =COMASS     WHERE =NUCLEI     WHERE =NUCLEI     WHERE =NUCLEI  
 OUTPUT=BOTH       OUTPUT=BOTH       OUTPUT=BOTH       OUTPUT=BOTH    
 IEMINT=       0   IEFINT=       0                     IEDINT=       0
                                                       MORB  =       0
          EXTRAPOLATION IN EFFECT
          DIIS IN EFFECT
 ORBITAL PRINTING OPTION: NPREO=     1    23     2     1

     -------------------------------
     INTEGRAL TRANSFORMATION OPTIONS
     -------------------------------
     NWORD  =            0
     CUTOFF = 1.0E-09     MPTRAN =       0
     DIRTRF =       T     AOINTS =DUP     

          -----------------------------
          LOCALIZATION INPUT PARAMETERS
          -----------------------------
           LOCAL=BOYS          NOUTA=       1
          PRTLOC=       F      NOUTB=       0
          MAXLOC=     250     CVGLOC=1.00E-06
           FCORE=       T     SYMLOC=       F
          MOIDON=       F     EDCOMP=       F
          DIPDCM=       F      NPROT=       0
          QADDCM=       F     DEPRNT=       F
          POLNUM=       F     ORIENT=       F
          POLDYN=       T      VMTOL=1.50E-01
          NPRDTL=       2
          MOOUTA =      1

          ----------------------
          INTEGRAL INPUT OPTIONS
          ----------------------
 NOPK  =       1 NORDER=       0 SCHWRZ=       T

     ------------------------------------------
     THE POINT GROUP IS C1 , NAXIS= 0, ORDER= 1
     ------------------------------------------

     DIMENSIONS OF THE SYMMETRY SUBSPACES ARE
 A   =   23

 ..... DONE SETTING UP THE RUN .....
 STEP CPU TIME =     0.02 TOTAL CPU TIME =        0.0 (    0.0 MIN)
 TOTAL WALL CLOCK TIME=        0.8 SECONDS, CPU UTILIZATION IS   2.50%

          --------------
          MAKEFP OPTIONS
          --------------
          FRAG=FRAGNAME
          SCREEN= T    POL   = T    EXREP = T
          DISP  = T    CHTR  = F    CTVVO =

          ********************
          1 ELECTRON INTEGRALS
          ********************
 ...... END OF ONE-ELECTRON INTEGRALS ......
 STEP CPU TIME =     0.00 TOTAL CPU TIME =        0.0 (    0.0 MIN)
 TOTAL WALL CLOCK TIME=        0.8 SECONDS, CPU UTILIZATION IS   2.47%

          -------------
          GUESS OPTIONS
          -------------
          GUESS =HUCKEL            NORB  =       0          NORDER=       0
          MIX   =       F          PRTMO =       F          PUNMO =       F
          TOLZ  = 1.0E-08          TOLE  = 1.0E-05
          SYMDEN=       F          PURIFY=       F

 INITIAL GUESS ORBITALS GENERATED BY HUCKEL   ROUTINE.
 HUCKEL GUESS REQUIRES      7663 WORDS.

 SYMMETRIES FOR INITIAL GUESS ORBITALS FOLLOW.   BOTH SET(S).
     5 ORBITALS ARE OCCUPIED (    1 CORE ORBITALS).
     2=A        3=A        4=A        5=A        6=A        7=A        8=A   
     9=A       10=A       11=A       12=A       13=A       14=A       15=A   
 ...... END OF INITIAL ORBITAL SELECTION ......
 STEP CPU TIME =     0.00 TOTAL CPU TIME =        0.0 (    0.0 MIN)
 TOTAL WALL CLOCK TIME=        0.8 SECONDS, CPU UTILIZATION IS   2.47%

                    ----------------------
                    AO INTEGRAL TECHNOLOGY
                    ----------------------
     S,P,L SHELL ROTATED AXIS INTEGRALS, REPROGRAMMED BY
        KAZUYA ISHIMURA (IMS) AND JOSE SIERRA (SYNSTAR).
     S,P,D,L SHELL ROTATED AXIS INTEGRALS PROGRAMMED BY
        KAZUYA ISHIMURA (INSTITUTE FOR MOLECULAR SCIENCE).
     S,P,D,F,G SHELL TO TOTAL QUARTET ANGULAR MOMENTUM SUM 5,
        ERIC PROGRAM BY GRAHAM FLETCHER (ELORET AND NASA ADVANCED
        SUPERCOMPUTING DIVISION, AMES RESEARCH CENTER).
     S,P,D,F,G,L SHELL GENERAL RYS QUADRATURE PROGRAMMED BY
        MICHEL DUPUIS (PACIFIC NORTHWEST NATIONAL LABORATORY).

          --------------------
          2 ELECTRON INTEGRALS
          --------------------

 DIRECT SCF METHOD SKIPS INTEGRAL STORAGE ON DISK.
 DIRECT TRANSFORMATION SKIPS AO INTEGRAL STORAGE ON DISK.
  ...... END OF TWO-ELECTRON INTEGRALS .....
 STEP CPU TIME =     0.01 TOTAL CPU TIME =        0.0 (    0.0 MIN)
 TOTAL WALL CLOCK TIME=        0.8 SECONDS, CPU UTILIZATION IS   3.57%

          --------------------------
                 RHF SCF CALCULATION
          --------------------------

     NUCLEAR ENERGY =        13.5924126586
     MAXIT =   30     NPUNCH=    2
     EXTRAP=T  DAMP=F  SHIFT=F  RSTRCT=F  DIIS=T  DEM=F  SOSCF=F
     DENSITY MATRIX CONV=  2.00E-06
     MEMORY REQUIRED FOR RHF ITERS=     50242 WORDS.

 DIRECT SCF CALCULATION, SCHWRZ=T   FDIFF=T,  DIRTHR=  0.00E+00 NITDIR=10
 SCHWARZ INEQUALITY OVERHEAD:       276 INTEGRALS, T=        0.00

                                                                                   NONZERO     BLOCKS
 ITER EX DEM     TOTAL ENERGY        E CHANGE  DENSITY CHANGE    DIIS ERROR      INTEGRALS    SKIPPED
          * * *   INITIATING DIIS PROCEDURE   * * *
   1  0  0      -40.1082443658   -40.1082443658   0.162187921   0.399128712          32154          0
   2  1  0      -40.1858024647    -0.0775580988   0.051657505   0.045182446          32154          0
   3  2  0      -40.1900467222    -0.0042442575   0.016068126   0.022128099          32154          0
   4  3  0      -40.1906843824    -0.0006376602   0.004425872   0.003939580          32154          0
   5  4  0      -40.1907187140    -0.0000343316   0.000448808   0.000219699          32154          0
   6  5  0      -40.1907190047    -0.0000002907   0.000062057   0.000043260          32154          0
   7  6  0      -40.1907190105    -0.0000000058   0.000009437   0.000008824          32154          0
   8  7  0      -40.1907190107    -0.0000000002   0.000001138   0.000000907          32154          0
   9  8  0      -40.1907190107    -0.0000000000   0.000000236   0.000000162          32154          0

          -----------------
          DENSITY CONVERGED
          -----------------
     TIME TO FORM FOCK OPERATORS=       0.0 SECONDS (       0.0 SEC/ITER)
     FOCK TIME ON FIRST ITERATION=       0.0, LAST ITERATION=       0.0
     TIME TO SOLVE SCF EQUATIONS=       0.0 SECONDS (       0.0 SEC/ITER)

 FINAL RHF ENERGY IS      -40.1907190107 AFTER   9 ITERATIONS

          ------------
          EIGENVECTORS
          ------------

                      1          2          3          4          5
                  -11.2024    -0.9481    -0.5656    -0.5462    -0.5301
                     A          A          A          A          A   
    1  C  1  S    0.995599  -0.194348  -0.006310   0.001875  -0.001045
    2  C  1  S    0.028641   0.359333   0.012260  -0.001089  -0.001621
    3  C  1  X   -0.000100  -0.016713   0.360439  -0.227577  -0.092190
    4  C  1  Y   -0.000038  -0.014114   0.053350  -0.108817   0.420785
    5  C  1  Z   -0.000035  -0.002997   0.247964   0.354789   0.064975
    6  C  1  S   -0.013431   0.358698   0.018012  -0.013120   0.014697
    7  C  1  X    0.000312  -0.004992   0.181195  -0.120159  -0.056139
    8  C  1  Y    0.000077  -0.001930   0.021857  -0.055537   0.225516
    9  C  1  Z    0.000149  -0.002005   0.123464   0.187905   0.033136
   10  C  1 XX   -0.002107   0.012381  -0.005444  -0.018349  -0.006094
   11  C  1 YY   -0.002137   0.007622  -0.024093   0.003769   0.012598
   12  C  1 ZZ   -0.002081   0.010424   0.030422   0.013210  -0.004666
   13  C  1 XY    0.000078   0.001269  -0.009797   0.007443  -0.033018
   14  C  1 XZ    0.000044   0.002262  -0.008210   0.028498   0.004107
   15  C  1 YZ    0.000022  -0.000117  -0.008782  -0.001239  -0.012011
   16  H  2  S    0.000037   0.149387  -0.213322   0.079366  -0.180814
   17  H  2  S    0.002751   0.039029  -0.162161   0.064163  -0.156914
   18  H  3  S    0.000088   0.128731  -0.105758  -0.021543   0.271086
   19  H  3  S    0.002422   0.036593  -0.078896  -0.019682   0.239587
   20  H  4  S    0.000007   0.134777   0.217958   0.196291  -0.002036
   21  H  4  S    0.002435   0.037593   0.170487   0.157911   0.000471
   22  H  5  S    0.000044   0.127870   0.106170  -0.262006  -0.077834
   23  H  5  S    0.002366   0.036435   0.085506  -0.216545  -0.065169

                      6          7          8          9         10
                    0.2571     0.3218     0.3272     0.3376     0.7114
                     A          A          A          A          A   
    1  C  1  S   -0.156152  -0.006670   0.009152   0.005208   0.003225
    2  C  1  S    0.103102   0.004172  -0.001810   0.009579   0.011454
    3  C  1  X    0.006506   0.184086   0.071359   0.227181  -0.309396
    4  C  1  Y    0.029970  -0.219410   0.152367   0.112286  -0.589152
    5  C  1  Z   -0.007851  -0.085849  -0.241649   0.144498  -0.245860
    6  C  1  S    2.828836   0.171761  -0.290788  -0.277444  -0.145525
    7  C  1  X   -0.031284   0.888360   0.371371   1.242739   0.679610
    8  C  1  Y    0.088492  -1.055920   0.763461   0.606122   1.007047
    9  C  1  Z   -0.051423  -0.430837  -1.240814   0.802877   0.495065
   10  C  1 XX   -0.011891  -0.007786  -0.005459   0.002823   0.010412
   11  C  1 YY   -0.013223   0.007983  -0.001427   0.007804   0.013872
   12  C  1 ZZ   -0.013176  -0.002361   0.010517  -0.007006  -0.038562
   13  C  1 XY    0.001828  -0.011822   0.006135   0.007539   0.077596
   14  C  1 XZ    0.001646   0.006899   0.011613   0.002151   0.015493
   15  C  1 YZ    0.000637  -0.004111   0.002146   0.004314   0.035492
   16  H  2  S    0.019418  -0.034515   0.027012   0.052725   0.521926
   17  H  2  S   -0.994865  -0.606361   0.735827   2.045794   0.106149
   18  H  3  S   -0.002034   0.077908  -0.039266  -0.015348  -0.250712
   19  H  3  S   -1.115714   1.681281  -0.788758   0.256194   0.153288
   20  H  4  S    0.004550   0.010005   0.052972  -0.044822  -0.194876
   21  H  4  S   -1.019356   0.065755   1.669921  -1.277146  -0.042658
   22  H  5  S   -0.000656  -0.050935  -0.053622  -0.026729  -0.087161
   23  H  5  S   -1.066673  -1.358173  -1.248289  -0.653148  -0.025455

                     11         12         13         14         15
                    0.7292     0.7418     1.1624     1.1793     1.2082
                     A          A          A          A          A   
    1  C  1  S   -0.002475  -0.001224  -0.008308  -0.021823  -0.041456
    2  C  1  S   -0.027310  -0.031603   0.222249   0.272999   0.243374
    3  C  1  X    0.166409  -0.638686  -0.355333   0.526716   0.572432
    4  C  1  Y    0.201522   0.374003   0.809320   0.289604   0.107309
    5  C  1  Z   -0.680505  -0.040218   0.117640  -0.647691   0.642868
    6  C  1  S    0.100467   0.037132  -0.428652  -0.433244  -0.203969
    7  C  1  X   -0.273511   1.278503   0.466218  -0.707056  -0.785820
    8  C  1  Y   -0.366593  -0.618830  -1.063511  -0.384691  -0.151960
    9  C  1  Z    1.290948   0.153525  -0.155621   0.845888  -0.855714
   10  C  1 XX    0.053086  -0.024515   0.060139  -0.095061   0.052310
   11  C  1 YY    0.013971   0.079082  -0.091916   0.052866   0.154289
   12  C  1 ZZ   -0.067376  -0.065318   0.065613   0.080978  -0.176605
   13  C  1 XY   -0.017043  -0.039401   0.166337   0.056341   0.057575
   14  C  1 XZ   -0.072658   0.049469  -0.049542   0.172166  -0.006808
   15  C  1 YZ    0.006365  -0.006238   0.057555   0.011119   0.054909
   16  H  2  S   -0.054961   0.077899   0.316539   0.181556   0.298468
   17  H  2  S    0.008850   0.161792  -0.651896  -0.485032  -0.921252
   18  H  3  S    0.127126   0.448583  -0.885319  -0.225976  -0.010255
   19  H  3  S    0.020436   0.097174   1.634894   0.308935  -0.273057
   20  H  4  S   -0.477022  -0.190581  -0.008180   0.335769  -0.933099
   21  H  4  S   -0.131663  -0.119219   0.032036  -0.732182   1.448845
   22  H  5  S    0.375232  -0.384204   0.282026  -0.895698  -0.351503
   23  H  5  S    0.035614  -0.099617  -0.511283   1.550466   0.351052

                     16         17         18         19         20
                    1.2796     1.3136     1.9432     1.9466     2.5596
                     A          A          A          A          A   
    1  C  1  S    0.044328  -0.130594  -0.008342  -0.015192   0.001234
    2  C  1  S   -1.395186  -1.618423  -0.064199  -0.118180  -0.024380
    3  C  1  X    0.334673  -0.126520  -0.002732  -0.001250  -0.131771
    4  C  1  Y    0.279327  -0.072978  -0.006241  -0.006349   0.076784
    5  C  1  Z    0.091945  -0.051563   0.004438  -0.001241   0.006238
    6  C  1  S    2.828470   4.823806   0.228119   0.417445   0.033449
    7  C  1  X   -0.426312  -0.042333  -0.011958  -0.021047  -0.399085
    8  C  1  Y   -0.357568   0.014012   0.000263   0.000537   0.193108
    9  C  1  Z   -0.115511  -0.020628  -0.006512  -0.011472  -0.005324
   10  C  1 XX   -0.066653  -0.173274   0.425414   0.694795  -0.285688
   11  C  1 YY   -0.049384  -0.109832  -0.405106  -0.410324   0.827397
   12  C  1 ZZ   -0.131334  -0.056980  -0.027014  -0.296870  -0.532919
   13  C  1 XY    0.078238  -0.005759  -0.392639   0.069679  -0.467953
   14  C  1 XZ    0.060326  -0.049884   0.331507   0.394385   0.565888
   15  C  1 YZ    0.034732   0.000276   0.710549  -0.587535  -0.107167
   16  H  2  S    0.823312  -0.605334  -0.047306  -0.079894  -0.059283
   17  H  2  S   -1.509435  -0.775305  -0.040993  -0.077643  -0.059063
   18  H  3  S    0.366525  -0.551087  -0.041861  -0.081105  -0.698783
   19  H  3  S   -0.613978  -0.721687  -0.036518  -0.064082   0.073447
   20  H  4  S    0.317973  -0.361723  -0.042714  -0.066833   0.181899
   21  H  4  S   -0.576982  -0.923352  -0.029603  -0.060603   0.002552
   22  H  5  S    0.242170  -0.408892  -0.033951  -0.073562   0.613950
   23  H  5  S   -0.427051  -0.843729  -0.034127  -0.056651  -0.065079

                     21         22         23
                    2.5857     2.6478     4.6147
                     A          A          A   
    1  C  1  S   -0.004144   0.005388  -0.485790
    2  C  1  S    0.028439  -0.018618   2.967271
    3  C  1  X   -0.026363   0.135989   0.015085
    4  C  1  Y   -0.061237   0.169592   0.013825
    5  C  1  Z    0.170822   0.093092   0.002429
    6  C  1  S    0.031830  -0.109477   2.420687
    7  C  1  X   -0.044349   0.255903  -0.050901
    8  C  1  Y   -0.133884   0.253095  -0.016402
    9  C  1  Z    0.400760   0.165819  -0.023452
   10  C  1 XX   -0.552451  -0.181960  -1.879109
   11  C  1 YY   -0.241888  -0.331182  -1.878321
   12  C  1 ZZ    0.785070   0.513205  -1.890198
   13  C  1 XY    0.258142  -0.909134  -0.016095
   14  C  1 XZ    0.746647  -0.240956  -0.006511
   15  C  1 YZ   -0.056428  -0.431243  -0.004997
   16  H  2  S   -0.108356   0.937217   0.159531
   17  H  2  S    0.029244  -0.110312  -0.545990
   18  H  3  S    0.269377  -0.289398   0.109676
   19  H  3  S   -0.033022   0.118300  -0.465667
   20  H  4  S   -0.784466  -0.355517   0.146163
   21  H  4  S    0.074929   0.050207  -0.488274
   22  H  5  S    0.526883  -0.171485   0.124312
   23  H  5  S   -0.073802   0.026234  -0.466113
 LVS DENSITY MATRIX
 1  1 2.05806513E+00-8.27961520E-02 1.08812666E-03 3.44854728E-03-8.39914949E-04
 1  2-1.66476237E-01-5.85389274E-05-5.20163282E-05 1.53136245E-04-8.99580949E-03
 1  3-6.92539101E-03-8.52098991E-03-1.18325321E-04-5.89736513E-04 2.20456060E-04
 1  4-5.46250109E-02-7.07717325E-03-4.91744007E-02-8.97865619E-03-5.43832059E-02
 1  5-1.13232175E-02-5.17753722E-02-1.12055299E-02
 2  1-8.27961520E-02 2.60188953E-01-2.38408495E-03-9.96454089E-03 2.94091900E-03
 2  2 2.57437295E-01 1.31722319E-03-1.45678390E-03 1.07810395E-03 8.70335963E-03
 2  3 4.71527947E-03 8.10447021E-03 7.67220775E-04 1.35164321E-03-2.56618725E-04
 2  4 1.02544170E-01 2.45987496E-02 8.90945065E-02 2.37680647E-02 1.01783815E-01
 2  5 3.09912262E-02 9.53246271E-02 2.90997187E-02
 3  1 1.08812666E-03-2.38408495E-03 3.80970961E-01 1.08744765E-02 5.38801943E-03
 3  2 4.25887819E-03 1.95827415E-01-4.81783129E-04-2.56592110E-03 5.13712516E-03
 3  3-2.16611208E-02 1.64301135E-02-4.40463047E-03-1.97224053E-02-3.54789920E-03
 3  4-1.61557262E-01-1.18475820E-01-1.20719207E-01-9.33149437E-02 6.36485629E-02
 3  5 4.96830303E-02 2.05865269E-01 1.70998131E-01
 4  1 3.44854728E-03-9.96454089E-03 1.08744765E-02 3.83893004E-01 4.00912143E-03
 4  2 7.02157123E-03-1.61967288E-03 2.04260556E-01 2.22380126E-04-2.06506880E-03
 4  3 6.99598773E-03-3.84959129E-03-3.04884549E-02-3.68539739E-03-1.07721630E-02
 4  4-1.96418977E-01-1.64422688E-01 2.17908165E-01 1.96461393E-01-2.49810335E-02
 4  5-1.68408250E-02-7.62340905E-04 3.78034299E-04
 5  1-8.39914949E-04 2.94091900E-03 5.38801943E-03 4.00912143E-03 3.83183322E-01
 5  2-6.16013887E-04-2.66813238E-03 7.48866675E-04 1.98879941E-01-1.65858064E-02
 5  3-7.68238241E-03 2.37918064E-02-3.87519208E-03 1.66705348E-02-6.79445565E-03
 5  4-7.38677520E-02-5.55163199E-02-3.32785674E-02-2.21776319E-02 2.46301900E-01
 5  5 1.96434745E-01-1.44141958E-01-1.19937856E-01
 6  1-1.66476237E-01 2.57437295E-01 4.25887819E-03 7.02157123E-03-6.16013887E-04
 6  2 2.59114864E-01 4.44070270E-03 7.48697415E-03-9.51397263E-04 9.04496463E-03
 6  3 4.92870596E-03 8.14622131E-03-6.10322179E-04 6.98964126E-04-7.21516951E-04
 6  4 9.20867377E-02 1.57873179E-02 9.70728081E-02 3.09030739E-02 9.93300018E-02
 6  5 2.89156201E-02 1.00144034E-01 3.29214857E-02
 7  1-5.85389274E-05 1.31722319E-03 1.95827415E-01-1.61967288E-03-2.66813238E-03
 7  2 4.44070270E-03 1.00892401E-01-4.03357101E-03-4.11528101E-03 2.99593013E-03
 7  3-1.11288923E-02 8.26845082E-03-1.64441232E-03-1.03075703E-02-1.53479203E-03
 7  4-7.75685155E-02-5.69551116E-02-6.48704008E-02-5.11252306E-02 3.06963331E-02
 7  5 2.34073729E-02 1.08902008E-01 8.99808609E-02
 8  1-5.20163282E-05-1.45678390E-03-4.81783129E-04 2.04260556E-01 7.48866675E-04
 8  2 7.48697415E-03-4.03357101E-03 1.08846287E-01-5.20928128E-04-9.96409778E-04
 8  3 4.18042015E-03-2.28237873E-03-1.61522919E-02-1.68049012E-03-5.66315703E-03
 8  4-1.00270319E-01-8.51390285E-02 1.19541146E-01 1.06657642E-01-1.37133062E-02
 8  5-1.00194337E-02-1.85563032E-03-1.74305780E-03
 9  1 1.53136245E-04 1.07810395E-03-2.56592110E-03 2.22380126E-04 1.98879941E-01
 9  2-9.51397263E-04-4.11528101E-03-5.20928128E-04 1.03306987E-01-8.69412484E-03
 9  3-3.72908260E-03 1.21247497E-02-1.81510197E-03 8.94587469E-03-3.42964255E-03
 9  4-3.54306564E-02-2.64837321E-02-1.67611318E-02-1.11460961E-02 1.26912012E-01
 9  5 1.01323414E-01-7.79190624E-02-6.47301074E-02
10  1-8.99580949E-03 8.70335963E-03 5.13712516E-03-2.06506880E-03-1.65858064E-02
10  2 9.04496463E-03 2.99593013E-03-9.96409778E-04-8.69412484E-03 1.12236976E-03
10  3 1.68213815E-04-4.92260866E-04 2.67019924E-04-9.50663829E-04 2.84480358E-04
10  4 5.31275453E-03 2.27817925E-03 1.82559894E-03-4.42679520E-04-6.21446774E-03
10  5-6.73641465E-03 1.25737722E-02 8.70218086E-03
11  1-6.92539101E-03 4.71527947E-03-2.16611208E-02 6.99598773E-03-7.68238241E-03
11  2 4.92870596E-03-1.11288923E-02 4.18042015E-03-3.72908260E-03 1.68213815E-04
11  3 1.63212761E-03-1.31610826E-03-2.84727441E-04 7.48231076E-04 1.09304431E-04
11  4 8.59883748E-03 4.92731286E-03 1.37259387E-02 1.02374348E-02-7.01974066E-03
11  5-6.45030239E-03-7.10322254E-03-6.84941018E-03
12  1-8.52098991E-03 8.10447021E-03 1.64301135E-02-3.84959129E-03 2.37918064E-02
12  2 8.14622131E-03 8.26845082E-03-2.28237873E-03 1.21247497E-02-4.92260866E-04
12  3-1.31610826E-03 2.46950202E-03-6.51662253E-05 2.62057536E-04-4.57493350E-04
12  4-6.08086349E-03-5.90482702E-03-6.85008745E-03-6.80323572E-03 2.12760983E-02
12  5 1.53142482E-02 2.92958132E-03 8.39302092E-04
13  1-1.18325321E-04 7.67220775E-04-4.40463047E-03-3.04884549E-02-3.87519208E-03
13  2-6.10322179E-04-1.64441232E-03-1.61522919E-02-1.81510197E-03 2.67019924E-04
13  3-2.84727441E-04-6.51662253E-05 2.48643818E-03 3.19617426E-04 9.46496643E-04
13  4 1.76808936E-02 1.45941282E-02-1.58234478E-02-1.44754931E-02-8.71876448E-04
13  5-9.24963392E-04-5.16157249E-04-5.02595566E-04
14  1-5.89736513E-04 1.35164321E-03-1.97224053E-02-3.68539739E-03 1.66705348E-02
14  2 6.98964126E-04-1.03075703E-02-1.68049012E-03 8.94587469E-03-9.50663829E-04
14  3 7.48231076E-04 2.62057536E-04 3.19617426E-04 1.80310416E-03-2.56357464E-05
14  4 7.21685212E-03 5.20756010E-03 3.31803225E-03 2.30760071E-03 8.20221644E-03
14  5 6.37521938E-03-1.67376282E-02-1.41166537E-02
15  1 2.20456060E-04-2.56618725E-04-3.54789920E-03-1.07721630E-02-6.79445565E-03
15  2-7.21516951E-04-1.53479203E-03-5.66315703E-03-3.42964255E-03 2.84480358E-04
15  3 1.09304431E-04-4.57493350E-04 9.46496643E-04-2.56357464E-05 4.45863870E-04
15  4 7.85845562E-03 6.44943193E-03-4.63139660E-03-4.32942549E-03-4.29717755E-03
15  5-3.40566798E-03 6.24447878E-04 5.91990512E-04
16  1-5.46250109E-02 1.02544170E-01-1.61557262E-01-1.96418977E-01-7.38677520E-02
16  2 9.20867377E-02-7.75685155E-02-1.00270319E-01-3.54306564E-02 5.31275453E-03
16  3 8.59883748E-03-6.08086349E-03 1.76808936E-02 7.21685212E-03 7.85845562E-03
16  4 2.13630946E-01 1.47775337E-01-1.78695332E-02-4.51721501E-02-2.08282744E-02
16  5-3.66100635E-02-2.05342955E-02-3.64002581E-02
17  1-7.07717325E-03 2.45987496E-02-1.18475820E-01-1.64422688E-01-5.55163199E-02
17  2 1.57873179E-02-5.69551116E-02-8.51390285E-02-2.64837321E-02 2.27817925E-03
17  3 4.92731286E-03-5.90482702E-03 1.45941282E-02 5.20756010E-03 6.44943193E-03
17  4 1.47775337E-01 1.13132016E-01-4.34903512E-02-4.92574173E-02-3.43400098E-02
17  5-3.22287127E-02-3.36479179E-02-3.22111949E-02
18  1-4.91744007E-02 8.90945065E-02-1.20719207E-01 2.17908165E-01-3.32785674E-02
18  2 9.70728081E-02-6.48704008E-02 1.19541146E-01-1.67611318E-02 1.82559894E-03
18  3 1.37259387E-02-6.85008745E-03-1.58234478E-02 3.31803225E-03-4.63139660E-03
18  4-1.78695332E-02-4.34903512E-02 2.03416559E-01 1.56854912E-01-2.09623126E-02
18  5-3.29299963E-02-2.04455448E-02-3.47077488E-02
19  1-8.97865619E-03 2.37680647E-02-9.33149437E-02 1.96461393E-01-2.21776319E-02
19  2 3.09030739E-02-5.11252306E-02 1.06657642E-01-1.11460961E-02-4.42679520E-04
19  3 1.02374348E-02-6.80323572E-03-1.44754931E-02 2.30760071E-03-4.32942549E-03
19  4-4.51721501E-02-4.92574173E-02 1.56854912E-01 1.30717668E-01-3.32303436E-02
19  5-3.01288204E-02-3.43768631E-02-3.35176044E-02
20  1-5.43832059E-02 1.01783815E-01 6.36485629E-02-2.49810335E-02 2.46301900E-01
20  2 9.93300018E-02 3.06963331E-02-1.37133062E-02 1.26912012E-01-6.21446774E-03
20  3-7.01974066E-03 2.12760983E-02-8.71876448E-04 8.20221644E-03-4.29717755E-03
20  4-2.08282744E-02-3.43400098E-02-2.09623126E-02-3.32303436E-02 2.08409027E-01
20  5 1.46442146E-01-2.17926102E-02-3.76514001E-02
21  1-1.13232175E-02 3.09912262E-02 4.96830303E-02-1.68408250E-02 1.96434745E-01
21  2 2.89156201E-02 2.34073729E-02-1.00194337E-02 1.01323414E-01-6.73641465E-03
21  3-6.45030239E-03 1.53142482E-02-9.24963392E-04 6.37521938E-03-3.40566798E-03
21  4-3.66100635E-02-3.22287127E-02-3.29299963E-02-3.01288204E-02 1.46442146E-01
21  5 1.10842137E-01-3.70048259E-02-3.65444728E-02
22  1-5.17753722E-02 9.53246271E-02 2.05865269E-01-7.62340905E-04-1.44141958E-01
22  2 1.00144034E-01 1.08902008E-01-1.85563032E-03-7.79190624E-02 1.25737722E-02
22  3-7.10322254E-03 2.92958132E-03-5.16157249E-04-1.67376282E-02 6.24447878E-04
22  4-2.05342955E-02-3.36479179E-02-2.04455448E-02-3.43768631E-02-2.17926102E-02
22  5-3.70048259E-02 2.04656138E-01 1.51091337E-01
23  1-1.12055299E-02 2.90997187E-02 1.70998131E-01 3.78034299E-04-1.19937856E-01
23  2 3.29214857E-02 8.99808609E-02-1.74305780E-03-6.47301074E-02 8.70218086E-03
23  3-6.84941018E-03 8.39302092E-04-5.02595566E-04-1.41166537E-02 5.91990512E-04
23  4-3.64002581E-02-3.22111949E-02-3.47077488E-02-3.35176044E-02-3.76514001E-02
23  5-3.65444728E-02 1.51091337E-01 1.19566247E-01
 ...... END OF RHF CALCULATION ......
 STEP CPU TIME =     0.05 TOTAL CPU TIME =        0.1 (    0.0 MIN)
 TOTAL WALL CLOCK TIME=        0.9 SECONDS, CPU UTILIZATION IS   8.79%

     ----------------------------------------------------------------
     PROPERTY VALUES FOR THE RHF   SELF-CONSISTENT FIELD WAVEFUNCTION
     ----------------------------------------------------------------

          -----------------
          ENERGY COMPONENTS
          -----------------

         WAVEFUNCTION NORMALIZATION =       1.0000000000

                ONE ELECTRON ENERGY =     -79.9815508546
                TWO ELECTRON ENERGY =      26.1984191853
           NUCLEAR REPULSION ENERGY =      13.5924126586
                                      ------------------
                       TOTAL ENERGY =     -40.1907190107

 ELECTRON-ELECTRON POTENTIAL ENERGY =      26.1984191853
  NUCLEUS-ELECTRON POTENTIAL ENERGY =    -120.2009498601
   NUCLEUS-NUCLEUS POTENTIAL ENERGY =      13.5924126586
                                      ------------------
             TOTAL POTENTIAL ENERGY =     -80.4101180162
               TOTAL KINETIC ENERGY =      40.2193990055
                 VIRIAL RATIO (V/T) =       1.9992869114

          ---------------------------------------
          MULLIKEN AND LOWDIN POPULATION ANALYSES
          ---------------------------------------

     ATOMIC MULLIKEN POPULATION IN EACH MOLECULAR ORBITAL

                      1          2          3          4          5

                  2.000000   2.000000   2.000000   2.000000   2.000000

    1             1.997977   1.342239   1.107810   1.105448   1.109920
    2             0.000585   0.194134   0.339639   0.046413   0.243377
    3             0.000476   0.151765   0.088219   0.004098   0.599838
    4             0.000494   0.162753   0.372242   0.294502   0.000022
    5             0.000467   0.149110   0.092090   0.549538   0.046843

               ----- POPULATIONS IN EACH AO -----
                             MULLIKEN      LOWDIN
              1  C  1  S      1.99641     1.98250
              2  C  1  S      0.62842     0.35242
              3  C  1  X      0.69943     0.63107
              4  C  1  Y      0.69678     0.63344
              5  C  1  Z      0.70111     0.63410
              6  C  1  S      0.67645     0.35031
              7  C  1  X      0.38959     0.51006
              8  C  1  Y      0.40051     0.52524
              9  C  1  Z      0.39287     0.51343
             10  C  1 XX      0.01926     0.15527
             11  C  1 YY      0.01425     0.14783
             12  C  1 ZZ      0.02268     0.16035
             13  C  1 XY      0.01336     0.01966
             14  C  1 XZ      0.00987     0.01452
             15  C  1 YZ      0.00240     0.00352
             16  H  2  S      0.54094     0.49794
             17  H  2  S      0.28321     0.33703
             18  H  3  S      0.51450     0.47946
             19  H  3  S      0.32989     0.36882
             20  H  4  S      0.52742     0.48716
             21  H  4  S      0.30260     0.35228
             22  H  5  S      0.51774     0.47942
             23  H  5  S      0.32031     0.36417

          ----- MULLIKEN ATOMIC OVERLAP POPULATIONS -----
          (OFF-DIAGONAL ELEMENTS NEED TO BE MULTIPLIED BY 2)

             1           2           3           4           5

    1    5.1050254
    2    0.3915839   0.5213216
    3    0.3872410  -0.0390324   0.5406469
    4    0.3908487  -0.0252623  -0.0213785   0.5120545
    5    0.3886945  -0.0244629  -0.0230799  -0.0262498   0.5231468

          TOTAL MULLIKEN AND LOWDIN ATOMIC POPULATIONS
       ATOM         MULL.POP.    CHARGE          LOW.POP.     CHARGE
    1 C             6.663394   -0.663394         6.633714   -0.633714
    2 H             0.824148    0.175852         0.834971    0.165029
    3 H             0.844397    0.155603         0.848285    0.151715
    4 H             0.830013    0.169987         0.839443    0.160557
    5 H             0.838049    0.161951         0.843586    0.156414

          -------------------------------
          BOND ORDER AND VALENCE ANALYSIS     BOND ORDER THRESHOLD=0.050
          -------------------------------

                   BOND                       BOND                       BOND
  ATOM PAIR DIST  ORDER      ATOM PAIR DIST  ORDER      ATOM PAIR DIST  ORDER
    1   2  1.035  0.956        1   3  1.108  0.967        1   4  1.072  0.961
    1   5  1.099  0.965

                       TOTAL       BONDED        FREE
      ATOM            VALENCE     VALENCE     VALENCE
    1 C                 3.850       3.850       0.000
    2 H                 0.922       0.922       0.000
    3 H                 0.937       0.937      -0.000
    4 H                 0.934       0.934       0.000
    5 H                 0.938       0.938       0.000

          ---------------------
          ELECTROSTATIC MOMENTS
          ---------------------

 POINT   1           X           Y           Z (BOHR)    CHARGE
                 4.978185    5.241669    5.451804        0.00 (A.U.)
         DX          DY          DZ         /D/  (DEBYE)
    -0.059442   -0.051590   -0.013111    0.079793

          ----------------------------------
          DENSITY BASED MULTIPOLAR EXPANSION
          ----------------------------------
                 13783 GRID POINTS ARE USED
 TOTAL NUMBER OF ELECTRONS =                    10
 TOTAL CHARGE OBTAINED FROM GRID INTEGRAL =  9.90014
 A SCALING FACTOR OF 1.01009 IS APPLIED
 THE EXPANSION POINTS ARE PUNCHED OUT IN THE DAT FILE
  
 ...... END OF PROPERTY EVALUATION ......
 STEP CPU TIME =     0.31 TOTAL CPU TIME =        0.4 (    0.0 MIN)
 TOTAL WALL CLOCK TIME=        1.3 SECONDS, CPU UTILIZATION IS  30.95%

 RUNTYP=MAKEFP IS NOW GENERATING DISTRIBUTED MULTIPOLES FOR ELECTOSTATICS


 PROCESSING $STONE INPUT...
 THE NUMBER OF "BOUNDARY" CORE MOS IS  0
 THE NUMBER OF MOS WITH ZERO OCCUPATION NUMBER IS  0
 TOTAL ELECTRON CHARGE =    -10.0000000000

          ---------------------------------------------
          DISTRIBUTED MULTIPOLAR ANALYSIS (A. J. STONE)
          ---------------------------------------------

 NET CHARGES AT POINTS                    COORDINATES
 ---------------------                    -----------
    #   NAME        CHARGE          X           Y           Z
    1   ZC          6.00000      4.98888     5.23454     5.46131
    2   ZH          1.00000      3.72276     3.85504     4.89439
    3   ZH          1.00000      3.87394     6.97309     5.12116
    4   ZH          1.00000      5.49910     5.00777     7.40773
    5   ZH          1.00000      6.68963     5.21564     4.27078
    6   C          -5.65143      4.98888     5.23454     5.46131
    7   H          -0.74767      3.72276     3.85504     4.89439
    8   H          -0.76236      3.87394     6.97309     5.12116
    9   H          -0.75232      5.49910     5.00777     7.40773
   10   H          -0.76111      6.68963     5.21564     4.27078
   11   BO21       -0.38356      4.35582     4.54479     5.17785
   12   BO31       -0.28339      4.43141     6.10381     5.29123
   13   BO41       -0.34537      5.24399     5.12116     6.43452
   14   BO51       -0.31279      5.83925     5.22509     4.86604

 THE DISTRIBUTED MULTIPOLE ANALYSIS IS FOR THE -ELECTRONIC- PART ONLY
 OF THE FOLLOWING MOMENTS.  ALL QUANTITIES ARE IN ATOMIC UNITS


 FIRST MOMENTS AT POINTS
 -----------------------
 NAME               X             Y             Z
 C              0.00034      -0.01723       0.00855
 H             -0.02637      -0.01367      -0.01105
 H             -0.02678       0.02535      -0.00979
 H              0.01146      -0.00509       0.04010
 H              0.03655      -0.00019      -0.02498
 BO21           0.15477       0.21092       0.07111
 BO31           0.12092      -0.27105       0.02288
 BO41          -0.07507       0.00482      -0.25079
 BO51          -0.21415      -0.01886       0.16802

 SECOND MOMENTS AT POINTS
 ------------------------
 NAME           XX         YY         ZZ         XY         XZ         YZ
 C          -3.68966   -3.70909   -3.69678    0.01041    0.01030    0.00170
 H          -0.46345   -0.45393   -0.46430    0.00313    0.00062    0.00178
 H          -0.49708   -0.48752   -0.49675   -0.00040   -0.00039    0.00059
 H          -0.46884   -0.46888   -0.46538   -0.00002    0.00054   -0.00025
 H          -0.48337   -0.48478   -0.48379   -0.00009   -0.00120    0.00007
 BO21       -0.30671   -0.30267   -0.30387    0.00023   -0.00124    0.00013
 BO31       -0.16246   -0.17482   -0.16386    0.01855   -0.00021    0.00627
 BO41       -0.26638   -0.26500   -0.27399    0.01204    0.00541    0.00513
 BO51       -0.23180   -0.23392   -0.21493    0.01089    0.01090    0.00191

 THIRD MOMENTS AT POINTS
 -----------------------
 NAME           XXX        YYY        ZZZ        XXY        XXZ        XYY
                YYZ        XZZ        YZZ        XYZ
 C          -0.07778   -0.14370   -0.11840   -0.01640    0.10820    0.13617
             0.05890   -0.10509   -0.00043    0.01705
 H          -0.03790   -0.00820   -0.01643   -0.00246   -0.00447   -0.00953
            -0.00360   -0.01293   -0.00484    0.00138
 H          -0.04217    0.02729   -0.01610    0.01043   -0.00509   -0.01081
            -0.00461   -0.01436    0.01237   -0.00056
 H           0.01796   -0.00800    0.05346   -0.00261    0.02031    0.00600
             0.02075    0.00380   -0.00167    0.00024
 H           0.05278   -0.00024   -0.03768    0.00001   -0.00937    0.01939
            -0.01321    0.01665   -0.00004   -0.00006
 BO21        0.52619    0.75935    0.24264    0.25402    0.08170    0.17590
             0.08148    0.17513    0.25245    0.00081
 BO31        0.43991   -1.06151    0.08692   -0.36233    0.00896    0.13203
             0.01811    0.15619   -0.35316   -0.00671
 BO41       -0.28956   -0.01038   -0.91429   -0.00821   -0.30670   -0.10309
            -0.30708   -0.09671   -0.00171   -0.00339
 BO51       -0.80461   -0.09593    0.66764   -0.03689    0.21362   -0.27385
             0.20970   -0.26037   -0.03382   -0.00428
 STEP CPU TIME =     0.01 TOTAL CPU TIME =        0.4 (    0.0 MIN)
 TOTAL WALL CLOCK TIME=        1.3 SECONDS, CPU UTILIZATION IS  30.77%

 RUNTYP=MAKEFP IS NOW GENERATING LOCALIZED ORBITALS
               AND DISTRIBUTED POLARIZABILITY TENSORS
               AND DATA FOR DISPERSION.


          -------------------------
          BOYS ORBITAL LOCALIZATION
          -------------------------
          S.F.BOYS, IN "QUANTUM THEORY OF ATOMS, MOLECULES, AND SOLIDS"
          P.O.LOWDIN, ED. ACADEMIC PRESS, NY, 1966 PP253-266.

          THIS LOCALIZATION REQUIRES      1549 WORDS OF MEMORY.
          THIS LOCALIZATION HAS   5 ORBITALS, OF WHICH   1 ARE FROZEN.

          THE INITIAL LOCALIZATION SUM IS      5.769618 DEBYE**2
          BOYS ITERATION  10 ORBITAL CHANGE=    9.2323039083E-09
          LOCALIZATION CONVERGED IN  12 ITERATIONS
            THE FINAL LOCALIZATION SUM IS     49.554020 DEBYE**2

          THE BOYS LOCALIZED ORBITALS ARE

                      1          2          3          4          5

    1  C  1  S   -0.995599   0.098974  -0.099508  -0.096777   0.093552
    2  C  1  S   -0.028641  -0.185066   0.185751   0.178081  -0.169730
    3  C  1  X    0.000100   0.234214   0.095222   0.307656   0.178633
    4  C  1  Y    0.000038   0.289113  -0.036587  -0.001154  -0.327139
    5  C  1  Z    0.000035   0.107045   0.363601  -0.213469   0.048563
    6  C  1  S    0.013431  -0.169742   0.182185   0.185291  -0.181770
    7  C  1  X   -0.000312   0.112038   0.046286   0.163050   0.095738
    8  C  1  Y   -0.000077   0.147150  -0.019585  -0.002262  -0.179948
    9  C  1  Z   -0.000149   0.051398   0.187260  -0.115511   0.024548
   10  C  1 XX    0.002107  -0.008979  -0.007929   0.019939  -0.003962
   11  C  1 YY    0.002137  -0.013075  -0.009747  -0.009970  -0.021122
   12  C  1 ZZ    0.002081   0.007633   0.032562   0.005605   0.008968
   13  C  1 XY   -0.000078  -0.025974  -0.001324  -0.000791   0.023795
   14  C  1 XZ   -0.000044  -0.010644   0.012179  -0.024788  -0.005048
   15  C  1 YZ   -0.000022  -0.011442  -0.006431   0.000831   0.007069
   16  H  2  S   -0.000037  -0.325523  -0.018049  -0.017638   0.014603
   17  H  2  S   -0.002751  -0.218858  -0.048446  -0.047791   0.063472
   18  H  3  S   -0.000088   0.015174  -0.018228  -0.017730  -0.317540
   19  H  3  S   -0.002422   0.063769  -0.045331  -0.047587  -0.238678
   20  H  4  S   -0.000007   0.015849   0.321525  -0.017598   0.016291
   21  H  4  S   -0.002435   0.048730   0.220329  -0.050292   0.044341
   22  H  5  S   -0.000044   0.016008  -0.018064   0.318564   0.016209
   23  H  5  S   -0.002366   0.048405  -0.050765   0.229439   0.047068
 ...... END OF ORBITAL LOCALIZATION ......
 STEP CPU TIME =     0.00 TOTAL CPU TIME =        0.4 (    0.0 MIN)
 TOTAL WALL CLOCK TIME=        1.3 SECONDS, CPU UTILIZATION IS  30.77%
 NORMALIZED MULL. POP. FOR EACH LMO
   1   0.999 0.000 0.000 0.000 0.000
   2   0.586 0.443-0.012-0.009-0.008
   3   0.585-0.009-0.007 0.440-0.009
   4   0.582-0.009-0.008-0.009 0.443
   5   0.580-0.013 0.449-0.008-0.008

 ATOMS ARE ASSIGNED TO THE LMOS BASED ON THEIR MULLIKEN POPULATION.
 (MULLIKEN POP. THRESHOLD(VMTOL)=0.150 WAS USED)
 ORBITAL   1 BELONGS TO ATOM(S)   1
 ORBITAL   2 BELONGS TO ATOM(S)   1  2
 ORBITAL   3 BELONGS TO ATOM(S)   1  4
 ORBITAL   4 BELONGS TO ATOM(S)   1  5
 ORBITAL   5 BELONGS TO ATOM(S)   1  3
 
  LCD DIPOLES 
 
 LMO    XP        YP        ZP        MUX       MUY       MUZ     TOTAL
   1  4.98886   5.23453   5.46130   0.00009   0.00004   0.00003   0.00011
   2  4.14439   4.26395   5.08041   1.07480   1.42766   0.49533   1.85439
   3  5.33316   5.08680   6.78673  -0.45328   0.17465  -1.79050   1.85522
   4  6.13990   5.22299   4.65549  -1.52836   0.01071   1.07038   1.86593
   5  4.26473   6.43127   5.24960   0.84730  -1.66465   0.21165   1.87984

     ------------------------------
     CPHF RESPONSE SOLUTION OPTIONS
     ------------------------------
     POLAR  =       F     NWORD  =       0
     CPHF   =AO      

     --------------------------------------------
     PARTIAL TWO ELECTRON INTEGRAL TRANSFORMATION
     --------------------------------------------

 NUMBER OF CORE MOLECULAR ORBITALS     =    0
 NUMBER OF OCCUPIED MOLECULAR ORBITALS =    5
 TOTAL NUMBER OF MOLECULAR ORBITALS    =   23
 TOTAL NUMBER OF ATOMIC ORBITALS       =   23
 THRESHOLD FOR KEEPING TRANSFORMED 2E- INTEGRALS = 1.000E-09
 AO INTEGRALS WILL BE CALCULATED IN DIRECT MODE...

 PLAN A: REQUIREMENTS FOR FULLY IN-MEMORY TRANSFORMATION:
 # OF WORDS AVAILABLE =            500000000
 # OF WORDS NEEDED    =               139985

 CHOOSING IN MEMORY PARTIAL TRANSFORMATION...
 DIRECT TRANSFORMATION SKIPS AO INTEGRAL STORAGE ON DISK.
 TOTAL NUMBER OF TRANSFORMED 2E- INTEGRALS KEPT =         8130
 ... END OF INTEGRAL TRANSFORMATION ...
 STEP CPU TIME =     0.00 TOTAL CPU TIME =        0.4 (    0.0 MIN)
 TOTAL WALL CLOCK TIME=        1.3 SECONDS, CPU UTILIZATION IS  30.53%

     -------------------------------------------
     COUPLED-PERTURBED CLOSED SHELL HARTREE-FOCK
     -------------------------------------------
 THE CPHF HAS      90 INDEPENDENT ORBITAL ROTATIONS.
 CHOOSING OUT OF MEMORY CPHF ALGORITHM,
 -A- WILL BE FORMED IN    1 SLICES OF     90 COLUMNS.
         -B- WILL USE      1926 WORDS,
 -A- AND -U- WILL USE     40098 WORDS,
            THERE ARE 500000000 WORDS AVAILABLE.
 IN MEMORY FORMATION OF -A- WOULD REQUIRE         0 WORDS
        TIME FOR   -B-  =        0.010
        TIME FOR   -A-  =        0.000
 BICONJUGATE GRADIENT SOLVER     CONV. TOLERANCE=1.00E-05
 ITER   1 IMPROVED    3 RESPONSES, MAX RESIDUE=  2.3286777E-03
 ITER   2 IMPROVED    3 RESPONSES, MAX RESIDUE=  8.3836746E-04
 ITER   3 IMPROVED    3 RESPONSES, MAX RESIDUE=  4.3783870E-05
 ITER   4 IMPROVED    3 RESPONSES, MAX RESIDUE=  2.0182551E-06
        TIME FOR  -U-   =        0.000
 SOLVING FOR ALL   3 UNIQUE RESPONSES TOOK   12 ITERATIONS.
 CONJUGATE GRADIENT SOLVER MADE  13 READS OF THE EXTERNALLY STORED -A-

          -----------------------------------
           LOCALIZED ALPHA POLARIZABILITIES 
                 IN ANGSTROMS**3            
          -----------------------------------

           CORE ALPHA POLARIZABILITY TENSOR 
                      UX             UY             UZ
           UX     0.000527179   -0.000013523   -0.000002324
           UY    -0.000010273    0.000522689   -0.000015924
           UZ    -0.000003603   -0.000015483    0.000524833

           MEAN ALPHA POLARIZABILITY =     0.000524900


  LMO ALPHA POLARIZABILITY TENSOR FOR BOND BETWEEN ATOM  1 AND ATOM  2
                      UX             UY             UZ
           UX     0.465095120    0.304666096    0.125794187
           UY     0.322402447    0.526927653    0.142105748
           UZ     0.125036881    0.133433297    0.237687710

           MEAN ALPHA POLARIZABILITY =     0.409903494


  LMO ALPHA POLARIZABILITY TENSOR FOR BOND BETWEEN ATOM  1 AND ATOM  4
                      UX             UY             UZ
           UX     0.258615281   -0.023948426    0.164271010
           UY    -0.024435029    0.209168253   -0.083761095
           UZ     0.165735247   -0.081081075    0.854019682

           MEAN ALPHA POLARIZABILITY =     0.440601072


  LMO ALPHA POLARIZABILITY TENSOR FOR BOND BETWEEN ATOM  1 AND ATOM  5
                      UX             UY             UZ
           UX     0.726359106   -0.012299158   -0.357911388
           UY    -0.016567551    0.198685804    0.005988937
           UZ    -0.354884844    0.002451566    0.463760815

           MEAN ALPHA POLARIZABILITY =     0.462935242


  LMO ALPHA POLARIZABILITY TENSOR FOR BOND BETWEEN ATOM  1 AND ATOM  3
                      UX             UY             UZ
           UX     0.430615239   -0.369095400    0.071402259
           UY    -0.381993012    0.760228818   -0.117726270
           UZ     0.067556097   -0.107911721    0.216583478

           MEAN ALPHA POLARIZABILITY =     0.469142512


               -----------------------------------
                TOTAL ALPHA POLARIZABILITY TENSOR 
               -----------------------------------
                      UX             UY             UZ
           UX     1.881211925   -0.100690411    0.003553743
           UY    -0.100603418    1.695533217   -0.053408604
           UZ     0.003439779   -0.053123416    1.772576518

           MEAN ALPHA POLARIZABILITY =     1.783107220


          -----------------------------------------------
           LOCALIZED ALPHA POLARIZABILITY TENSORS FOR 
           LONE PAIRS AND BONDS PROJECTED ONTO THE Z-AXIS 
          -----------------------------------------------


  LMO ALPHA POLARIZABILITY TENSOR FOR BOND BETWEEN ATOM  1 AND ATOM  2
                      UX             UY             UZ
           UX     0.180981654   -0.000456593   -0.013283620
           UY    -0.000395550    0.182492442    0.007451708
           UZ     0.005229358    0.000550333    0.866236387

           MEAN ALPHA POLARIZABILITY =     0.409903494


  LMO ALPHA POLARIZABILITY TENSOR FOR BOND BETWEEN ATOM  1 AND ATOM  4
                      UX             UY             UZ
           UX     0.199367717    0.004532829    0.008921048
           UY     0.004161296    0.215266526   -0.000898659
           UZ     0.005861154   -0.001148237    0.907168972

           MEAN ALPHA POLARIZABILITY =     0.440601072


  LMO ALPHA POLARIZABILITY TENSOR FOR BOND BETWEEN ATOM  1 AND ATOM  5
                      UX             UY             UZ
           UX     0.198430239    0.004488409    0.009921101
           UY     0.004911007    0.215308501    0.003002050
           UZ     0.004415169   -0.000063608    0.975066985

           MEAN ALPHA POLARIZABILITY =     0.462935242


  LMO ALPHA POLARIZABILITY TENSOR FOR BOND BETWEEN ATOM  1 AND ATOM  3
                      UX             UY             UZ
           UX     0.185364252   -0.003472404    0.000133809
           UY    -0.003535109    0.194933150    0.006186586
           UZ    -0.012927226   -0.004151314    1.027130132

           MEAN ALPHA POLARIZABILITY =     0.469142512
 .... DONE WITH STATIC POLARIZABILITY ....
 STEP CPU TIME =     0.01 TOTAL CPU TIME =        0.4 (    0.0 MIN)
 TOTAL WALL CLOCK TIME=        1.3 SECONDS, CPU UTILIZATION IS  30.83%
 USING   GMRES    SOLVER FOR LINEAR SYSTEM OF SIZE        90

 A TOTAL OF  12 IMAGINARY FREQUENCY POLARIZABILITIES ARE TO BE FOUND
 ALLOCATING MEMORY FOR GMRES SOLVER
 CALCULATING H2*H1 DIAGONAL
 WIDTH=                    90 NROT=                    90

 COMPUTING DYNAMIC POLARIZABILTY FOR IMAGINARY FREQUENCY   0.0027916I (A.U.)
 GMRES CONVERGED IN                     14 ITERATIONS
 GMRES CONVERGED IN                     14 ITERATIONS
 GMRES CONVERGED IN                     14 ITERATIONS

          -----------------------------------
           LOCALIZED ALPHA POLARIZABILITIES 
                 IN ANGSTROMS**3            
          -----------------------------------

           CORE ALPHA POLARIZABILITY TENSOR 
                      UX             UY             UZ
           UX     0.000514570   -0.000010129   -0.000008919
           UY    -0.000005884    0.000508051   -0.000003025
           UZ    -0.000008004   -0.000004862    0.000527543

           MEAN ALPHA POLARIZABILITY =     0.000516721


  LMO ALPHA POLARIZABILITY TENSOR FOR BOND BETWEEN ATOM  1 AND ATOM  2
                      UX             UY             UZ
           UX     0.465106187    0.304634780    0.125703463
           UY     0.322318414    0.526790469    0.142277511
           UZ     0.125021506    0.133547790    0.237685742

           MEAN ALPHA POLARIZABILITY =     0.409860799


  LMO ALPHA POLARIZABILITY TENSOR FOR BOND BETWEEN ATOM  1 AND ATOM  4
                      UX             UY             UZ
           UX     0.258674171   -0.023827220    0.164150963
           UY    -0.024379746    0.209167406   -0.083560952
           UZ     0.165655058   -0.080916800    0.854106873

           MEAN ALPHA POLARIZABILITY =     0.440649484


  LMO ALPHA POLARIZABILITY TENSOR FOR BOND BETWEEN ATOM  1 AND ATOM  5
                      UX             UY             UZ
           UX     0.726090192   -0.012183288   -0.357835704
           UY    -0.016463024    0.198674852    0.006195473
           UZ    -0.354906616    0.002649010    0.463766771

           MEAN ALPHA POLARIZABILITY =     0.462843938


  LMO ALPHA POLARIZABILITY TENSOR FOR BOND BETWEEN ATOM  1 AND ATOM  3
                      UX             UY             UZ
           UX     0.430584745   -0.369004171    0.071332715
           UY    -0.381859788    0.760215027   -0.117520135
           UZ     0.067580573   -0.107886266    0.216654591

           MEAN ALPHA POLARIZABILITY =     0.469151455


               -----------------------------------
                TOTAL ALPHA POLARIZABILITY TENSOR 
               -----------------------------------
                      UX             UY             UZ
           UX     1.880969865   -0.100390028    0.003342517
           UY    -0.100390028    1.695355806   -0.052611127
           UZ     0.003342517   -0.052611127    1.772741520

           MEAN ALPHA POLARIZABILITY =     1.783022397

 COMPUTING DYNAMIC POLARIZABILTY FOR IMAGINARY FREQUENCY   0.0151066I (A.U.)
 GMRES CONVERGED IN                      9 ITERATIONS
 GMRES CONVERGED IN                      9 ITERATIONS
 GMRES CONVERGED IN                      9 ITERATIONS

          -----------------------------------
           LOCALIZED ALPHA POLARIZABILITIES 
                 IN ANGSTROMS**3            
          -----------------------------------

           CORE ALPHA POLARIZABILITY TENSOR 
                      UX             UY             UZ
           UX     0.000514477   -0.000010115   -0.000008902
           UY    -0.000005877    0.000507935   -0.000003025
           UZ    -0.000007988   -0.000004859    0.000527430

           MEAN ALPHA POLARIZABILITY =     0.000516614


  LMO ALPHA POLARIZABILITY TENSOR FOR BOND BETWEEN ATOM  1 AND ATOM  2
                      UX             UY             UZ
           UX     0.464824684    0.304420582    0.125611243
           UY     0.322072578    0.526443779    0.142167809
           UZ     0.124930024    0.133453238    0.237577463

           MEAN ALPHA POLARIZABILITY =     0.409615309


  LMO ALPHA POLARIZABILITY TENSOR FOR BOND BETWEEN ATOM  1 AND ATOM  4
                      UX             UY             UZ
           UX     0.258552635   -0.023807322    0.164027324
           UY    -0.024358827    0.209078614   -0.083492060
           UZ     0.165526592   -0.080851915    0.853518871

           MEAN ALPHA POLARIZABILITY =     0.440383373


  LMO ALPHA POLARIZABILITY TENSOR FOR BOND BETWEEN ATOM  1 AND ATOM  5
                      UX             UY             UZ
           UX     0.725584678   -0.012170466   -0.357543223
           UY    -0.016442804    0.198591179    0.006186430
           UZ    -0.354616958    0.002646258    0.463477033

           MEAN ALPHA POLARIZABILITY =     0.462550964


  LMO ALPHA POLARIZABILITY TENSOR FOR BOND BETWEEN ATOM  1 AND ATOM  3
                      UX             UY             UZ
           UX     0.430304588   -0.368705917    0.071272683
           UY    -0.381538308    0.759655979   -0.117420975
           UZ     0.067527455   -0.107804543    0.216559619

           MEAN ALPHA POLARIZABILITY =     0.468840062


               -----------------------------------
                TOTAL ALPHA POLARIZABILITY TENSOR 
               -----------------------------------
                      UX             UY             UZ
           UX     1.879781063   -0.100273238    0.003359125
           UY    -0.100273238    1.694277484   -0.052561822
           UZ     0.003359125   -0.052561822    1.771660416

           MEAN ALPHA POLARIZABILITY =     1.781906321

 COMPUTING DYNAMIC POLARIZABILTY FOR IMAGINARY FREQUENCY   0.0390017I (A.U.)
 GMRES CONVERGED IN                     10 ITERATIONS
 GMRES CONVERGED IN                     10 ITERATIONS
 GMRES CONVERGED IN                     10 ITERATIONS

          -----------------------------------
           LOCALIZED ALPHA POLARIZABILITIES 
                 IN ANGSTROMS**3            
          -----------------------------------

           CORE ALPHA POLARIZABILITY TENSOR 
                      UX             UY             UZ
           UX     0.000513938   -0.000010037   -0.000008802
           UY    -0.000005837    0.000507257   -0.000003028
           UZ    -0.000007897   -0.000004845    0.000526773

           MEAN ALPHA POLARIZABILITY =     0.000515989


  LMO ALPHA POLARIZABILITY TENSOR FOR BOND BETWEEN ATOM  1 AND ATOM  2
                      UX             UY             UZ
           UX     0.463181068    0.303170033    0.125072908
           UY     0.320638070    0.524420617    0.141527692
           UZ     0.124395996    0.132901231    0.236944905

           MEAN ALPHA POLARIZABILITY =     0.408182197


  LMO ALPHA POLARIZABILITY TENSOR FOR BOND BETWEEN ATOM  1 AND ATOM  4
                      UX             UY             UZ
           UX     0.257842665   -0.023691219    0.163305582
           UY    -0.024236805    0.208559838   -0.083090198
           UZ     0.164776869   -0.080473357    0.850086968

           MEAN ALPHA POLARIZABILITY =     0.438829824


  LMO ALPHA POLARIZABILITY TENSOR FOR BOND BETWEEN ATOM  1 AND ATOM  5
                      UX             UY             UZ
           UX     0.722634551   -0.012095771   -0.355836810
           UY    -0.016325109    0.198102357    0.006133838
           UZ    -0.352927055    0.002630237    0.461785875

           MEAN ALPHA POLARIZABILITY =     0.460840928


  LMO ALPHA POLARIZABILITY TENSOR FOR BOND BETWEEN ATOM  1 AND ATOM  3
                      UX             UY             UZ
           UX     0.428669620   -0.366965837    0.070922457
           UY    -0.379663149    0.756394470   -0.116842556
           UZ     0.067217421   -0.107327517    0.216004817

           MEAN ALPHA POLARIZABILITY =     0.467022969


               -----------------------------------
                TOTAL ALPHA POLARIZABILITY TENSOR 
               -----------------------------------
                      UX             UY             UZ
           UX     1.872841842   -0.099592830    0.003455335
           UY    -0.099592830    1.687984539   -0.052274252
           UZ     0.003455335   -0.052274252    1.765349338

           MEAN ALPHA POLARIZABILITY =     1.775391906

 COMPUTING DYNAMIC POLARIZABILTY FOR IMAGINARY FREQUENCY   0.0779961I (A.U.)
 GMRES CONVERGED IN                     11 ITERATIONS
 GMRES CONVERGED IN                     11 ITERATIONS
 GMRES CONVERGED IN                     11 ITERATIONS

          -----------------------------------
           LOCALIZED ALPHA POLARIZABILITIES 
                 IN ANGSTROMS**3            
          -----------------------------------

           CORE ALPHA POLARIZABILITY TENSOR 
                      UX             UY             UZ
           UX     0.000512088   -0.000009768   -0.000008459
           UY    -0.000005701    0.000504938   -0.000003037
           UZ    -0.000007585   -0.000004797    0.000524520

           MEAN ALPHA POLARIZABILITY =     0.000513849


  LMO ALPHA POLARIZABILITY TENSOR FOR BOND BETWEEN ATOM  1 AND ATOM  2
                      UX             UY             UZ
           UX     0.457483413    0.298836243    0.123208242
           UY     0.315676614    0.517421199    0.139314027
           UZ     0.122546202    0.130988452    0.234747416

           MEAN ALPHA POLARIZABILITY =     0.403217343


  LMO ALPHA POLARIZABILITY TENSOR FOR BOND BETWEEN ATOM  1 AND ATOM  4
                      UX             UY             UZ
           UX     0.255376802   -0.023289776    0.160805601
           UY    -0.023815363    0.206756933   -0.081702093
           UZ     0.162182568   -0.079164828    0.838206985

           MEAN ALPHA POLARIZABILITY =     0.433446907


  LMO ALPHA POLARIZABILITY TENSOR FOR BOND BETWEEN ATOM  1 AND ATOM  5
                      UX             UY             UZ
           UX     0.712426562   -0.011839045   -0.349938663
           UY    -0.015921904    0.196404137    0.005954263
           UZ    -0.347086460    0.002575344    0.455930450

           MEAN ALPHA POLARIZABILITY =     0.454920383


  LMO ALPHA POLARIZABILITY TENSOR FOR BOND BETWEEN ATOM  1 AND ATOM  3
                      UX             UY             UZ
           UX     0.423012325   -0.360951521    0.069712121
           UY    -0.373187514    0.745122758   -0.114844651
           UZ     0.066144117   -0.105675663    0.214077803

           MEAN ALPHA POLARIZABILITY =     0.460737628


               -----------------------------------
                TOTAL ALPHA POLARIZABILITY TENSOR 
               -----------------------------------
                      UX             UY             UZ
           UX     1.848811190   -0.097253868    0.003778843
           UY    -0.097253868    1.666209965   -0.051281491
           UZ     0.003778843   -0.051281491    1.743487175

           MEAN ALPHA POLARIZABILITY =     1.752836110

 COMPUTING DYNAMIC POLARIZABILTY FOR IMAGINARY FREQUENCY   0.1386505I (A.U.)
 GMRES CONVERGED IN                     11 ITERATIONS
 GMRES CONVERGED IN                     11 ITERATIONS
 GMRES CONVERGED IN                     11 ITERATIONS

          -----------------------------------
           LOCALIZED ALPHA POLARIZABILITIES 
                 IN ANGSTROMS**3            
          -----------------------------------

           CORE ALPHA POLARIZABILITY TENSOR 
                      UX             UY             UZ
           UX     0.000507205   -0.000009065   -0.000007554
           UY    -0.000005341    0.000498856   -0.000003053
           UZ    -0.000006760   -0.000004664    0.000518558

           MEAN ALPHA POLARIZABILITY =     0.000508206


  LMO ALPHA POLARIZABILITY TENSOR FOR BOND BETWEEN ATOM  1 AND ATOM  2
                      UX             UY             UZ
           UX     0.441911618    0.287002771    0.118124287
           UY     0.302205266    0.498399421    0.133305732
           UZ     0.117502351    0.125767172    0.228703613

           MEAN ALPHA POLARIZABILITY =     0.389671551


  LMO ALPHA POLARIZABILITY TENSOR FOR BOND BETWEEN ATOM  1 AND ATOM  4
                      UX             UY             UZ
           UX     0.248599289   -0.022200984    0.153989677
           UY    -0.022675852    0.201792472   -0.077947319
           UZ     0.155129251   -0.075618114    0.805871012

           MEAN ALPHA POLARIZABILITY =     0.418754258


  LMO ALPHA POLARIZABILITY TENSOR FOR BOND BETWEEN ATOM  1 AND ATOM  5
                      UX             UY             UZ
           UX     0.684675050   -0.011154636   -0.333954939
           UY    -0.014857059    0.191732476    0.005484512
           UZ    -0.331262127    0.002430173    0.439981510

           MEAN ALPHA POLARIZABILITY =     0.438796345


  LMO ALPHA POLARIZABILITY TENSOR FOR BOND BETWEEN ATOM  1 AND ATOM  3
                      UX             UY             UZ
           UX     0.407631595   -0.344653975    0.066433817
           UY    -0.355682902    0.714585807   -0.109441008
           UZ     0.063222574   -0.101175703    0.208780384

           MEAN ALPHA POLARIZABILITY =     0.443665929


               -----------------------------------
                TOTAL ALPHA POLARIZABILITY TENSOR 
               -----------------------------------
                      UX             UY             UZ
           UX     1.783324757   -0.091015889    0.004585289
           UY    -0.091015889    1.607009032   -0.048601136
           UZ     0.004585289   -0.048601136    1.683855078

           MEAN ALPHA POLARIZABILITY =     1.691396289

 COMPUTING DYNAMIC POLARIZABILTY FOR IMAGINARY FREQUENCY   0.2332227I (A.U.)
 GMRES CONVERGED IN                     11 ITERATIONS
 GMRES CONVERGED IN                     11 ITERATIONS
 GMRES CONVERGED IN                     11 ITERATIONS

          -----------------------------------
           LOCALIZED ALPHA POLARIZABILITIES 
                 IN ANGSTROMS**3            
          -----------------------------------

           CORE ALPHA POLARIZABILITY TENSOR 
                      UX             UY             UZ
           UX     0.000496772   -0.000007580   -0.000005622
           UY    -0.000004575    0.000486077   -0.000003054
           UZ    -0.000004992   -0.000004353    0.000505735

           MEAN ALPHA POLARIZABILITY =     0.000496194


  LMO ALPHA POLARIZABILITY TENSOR FOR BOND BETWEEN ATOM  1 AND ATOM  2
                      UX             UY             UZ
           UX     0.405496507    0.259403094    0.106311134
           UY     0.271192595    0.454495827    0.119488051
           UZ     0.105779011    0.113597805    0.214340215

           MEAN ALPHA POLARIZABILITY =     0.358110849


  LMO ALPHA POLARIZABILITY TENSOR FOR BOND BETWEEN ATOM  1 AND ATOM  4
                      UX             UY             UZ
           UX     0.232518350   -0.019705347    0.138160560
           UY    -0.020081843    0.189954571   -0.069384638
           UZ     0.138850335   -0.067490341    0.730995996

           MEAN ALPHA POLARIZABILITY =     0.384489639


  LMO ALPHA POLARIZABILITY TENSOR FOR BOND BETWEEN ATOM  1 AND ATOM  5
                      UX             UY             UZ
           UX     0.620602566   -0.009649016   -0.297354318
           UY    -0.012567871    0.180617362    0.004497570
           UZ    -0.295040209    0.002114982    0.402969837

           MEAN ALPHA POLARIZABILITY =     0.401396588


  LMO ALPHA POLARIZABILITY TENSOR FOR BOND BETWEEN ATOM  1 AND ATOM  3
                      UX             UY             UZ
           UX     0.372104958   -0.307332075    0.058936738
           UY    -0.315829231    0.644660812   -0.097123692
           UZ     0.056464348   -0.090743856    0.196200885

           MEAN ALPHA POLARIZABILITY =     0.404322218


               -----------------------------------
                TOTAL ALPHA POLARIZABILITY TENSOR 
               -----------------------------------
                      UX             UY             UZ
           UX     1.631219152   -0.077290925    0.006048492
           UY    -0.077290925    1.470214649   -0.042525763
           UZ     0.006048492   -0.042525763    1.545012668

           MEAN ALPHA POLARIZABILITY =     1.548815490

 COMPUTING DYNAMIC POLARIZABILTY FOR IMAGINARY FREQUENCY   0.3858973I (A.U.)
 GMRES CONVERGED IN                     11 ITERATIONS
 GMRES CONVERGED IN                     11 ITERATIONS
 GMRES CONVERGED IN                     11 ITERATIONS

          -----------------------------------
           LOCALIZED ALPHA POLARIZABILITIES 
                 IN ANGSTROMS**3            
          -----------------------------------

           CORE ALPHA POLARIZABILITY TENSOR 
                      UX             UY             UZ
           UX     0.000480491   -0.000005246   -0.000002527
           UY    -0.000003346    0.000466808   -0.000002933
           UZ    -0.000002142   -0.000003750    0.000485326

           MEAN ALPHA POLARIZABILITY =     0.000477542


  LMO ALPHA POLARIZABILITY TENSOR FOR BOND BETWEEN ATOM  1 AND ATOM  2
                      UX             UY             UZ
           UX     0.334024250    0.205655084    0.083499661
           UY     0.212244294    0.370391354    0.093291358
           UZ     0.083122260    0.089931236    0.185082188

           MEAN ALPHA POLARIZABILITY =     0.296499264


  LMO ALPHA POLARIZABILITY TENSOR FOR BOND BETWEEN ATOM  1 AND ATOM  4
                      UX             UY             UZ
           UX     0.199874635   -0.015038162    0.107691808
           UY    -0.015285501    0.165623440   -0.053435988
           UZ     0.107839354   -0.052205189    0.587011104

           MEAN ALPHA POLARIZABILITY =     0.317503060


  LMO ALPHA POLARIZABILITY TENSOR FOR BOND BETWEEN ATOM  1 AND ATOM  5
                      UX             UY             UZ
           UX     0.498110476   -0.007050705   -0.228736042
           UY    -0.008803254    0.157856620    0.002946170
           UZ    -0.227142585    0.001568177    0.331285832

           MEAN ALPHA POLARIZABILITY =     0.329084309


  LMO ALPHA POLARIZABILITY TENSOR FOR BOND BETWEEN ATOM  1 AND ATOM  3
                      UX             UY             UZ
           UX     0.304007090   -0.237279287    0.044926405
           UY    -0.241870509    0.513101577   -0.074228954
           UZ     0.043562419   -0.070720820    0.170571846

           MEAN ALPHA POLARIZABILITY =     0.329226838


               -----------------------------------
                TOTAL ALPHA POLARIZABILITY TENSOR 
               -----------------------------------
                      UX             UY             UZ
           UX     1.336496942   -0.053718316    0.007379306
           UY    -0.053718316    1.207439799   -0.031430347
           UZ     0.007379306   -0.031430347    1.274436296

           MEAN ALPHA POLARIZABILITY =     1.272791012

 COMPUTING DYNAMIC POLARIZABILTY FOR IMAGINARY FREQUENCY   0.6491140I (A.U.)
 GMRES CONVERGED IN                     10 ITERATIONS
 GMRES CONVERGED IN                     10 ITERATIONS
 GMRES CONVERGED IN                     10 ITERATIONS

          -----------------------------------
           LOCALIZED ALPHA POLARIZABILITIES 
                 IN ANGSTROMS**3            
          -----------------------------------

           CORE ALPHA POLARIZABILITY TENSOR 
                      UX             UY             UZ
           UX     0.000467825   -0.000002933    0.000000536
           UY    -0.000002108    0.000452751   -0.000002559
           UZ     0.000000699   -0.000002905    0.000467999

           MEAN ALPHA POLARIZABILITY =     0.000462858


  LMO ALPHA POLARIZABILITY TENSOR FOR BOND BETWEEN ATOM  1 AND ATOM  2
                      UX             UY             UZ
           UX     0.227064010    0.127150757    0.050732501
           UY     0.128983998    0.248530076    0.056491994
           UZ     0.050526918    0.055458021    0.137801140

           MEAN ALPHA POLARIZABILITY =     0.204465075


  LMO ALPHA POLARIZABILITY TENSOR FOR BOND BETWEEN ATOM  1 AND ATOM  4
                      UX             UY             UZ
           UX     0.147425315   -0.008746805    0.064432515
           UY    -0.008890785    0.125474144   -0.031670564
           UZ     0.064303652   -0.031060677    0.379192736

           MEAN ALPHA POLARIZABILITY =     0.217364065


  LMO ALPHA POLARIZABILITY TENSOR FOR BOND BETWEEN ATOM  1 AND ATOM  5
                      UX             UY             UZ
           UX     0.322821864   -0.003927470   -0.134733488
           UY    -0.004631825    0.120395234    0.001333285
           UZ    -0.134014836    0.000840400    0.225478367

           MEAN ALPHA POLARIZABILITY =     0.222898488


  LMO ALPHA POLARIZABILITY TENSOR FOR BOND BETWEEN ATOM  1 AND ATOM  3
                      UX             UY             UZ
           UX     0.205403527   -0.140797698    0.025887821
           UY    -0.141783430    0.329212147   -0.043252121
           UZ     0.025503450   -0.042334804    0.128843216

           MEAN ALPHA POLARIZABILITY =     0.221152963


               -----------------------------------
                TOTAL ALPHA POLARIZABILITY TENSOR 
               -----------------------------------
                      UX             UY             UZ
           UX     0.903182542   -0.026324150    0.006319884
           UY    -0.026324150    0.824064351   -0.017099964
           UZ     0.006319884   -0.017099964    0.871783458

           MEAN ALPHA POLARIZABILITY =     0.866343450

 COMPUTING DYNAMIC POLARIZABILTY FOR IMAGINARY FREQUENCY   1.1539038I (A.U.)
 GMRES CONVERGED IN                      9 ITERATIONS
 GMRES CONVERGED IN                      9 ITERATIONS
 GMRES CONVERGED IN                      9 ITERATIONS

          -----------------------------------
           LOCALIZED ALPHA POLARIZABILITIES 
                 IN ANGSTROMS**3            
          -----------------------------------

           CORE ALPHA POLARIZABILITY TENSOR 
                      UX             UY             UZ
           UX     0.000473911   -0.000001791    0.000001812
           UY    -0.000001569    0.000459977   -0.000002120
           UZ     0.000001859   -0.000002201    0.000471612

           MEAN ALPHA POLARIZABILITY =     0.000468500


  LMO ALPHA POLARIZABILITY TENSOR FOR BOND BETWEEN ATOM  1 AND ATOM  2
                      UX             UY             UZ
           UX     0.117561292    0.052748687    0.020520248
           UY     0.052701835    0.127242534    0.023046399
           UZ     0.020439442    0.022965350    0.082048870

           MEAN ALPHA POLARIZABILITY =     0.108950899


  LMO ALPHA POLARIZABILITY TENSOR FOR BOND BETWEEN ATOM  1 AND ATOM  4
                      UX             UY             UZ
           UX     0.086158750   -0.003439153    0.025562032
           UY    -0.003509243    0.076418691   -0.012534559
           UZ     0.025495355   -0.012291079    0.179051491

           MEAN ALPHA POLARIZABILITY =     0.113876310


  LMO ALPHA POLARIZABILITY TENSOR FOR BOND BETWEEN ATOM  1 AND ATOM  5
                      UX             UY             UZ
           UX     0.154857829   -0.001522475   -0.052858611
           UY    -0.001721161    0.074302800    0.000308485
           UZ    -0.052698314    0.000191454    0.117278744

           MEAN ALPHA POLARIZABILITY =     0.115479791


  LMO ALPHA POLARIZABILITY TENSOR FOR BOND BETWEEN ATOM  1 AND ATOM  3
                      UX             UY             UZ
           UX     0.107077557   -0.055620201    0.009657094
           UY    -0.055304795    0.157096705   -0.016662411
           UZ     0.009644232   -0.016707730    0.078341404

           MEAN ALPHA POLARIZABILITY =     0.114171889


               -----------------------------------
                TOTAL ALPHA POLARIZABILITY TENSOR 
               -----------------------------------
                      UX             UY             UZ
           UX     0.466129339   -0.007834933    0.002882575
           UY    -0.007834933    0.435520707   -0.005844207
           UZ     0.002882575   -0.005844207    0.457192120

           MEAN ALPHA POLARIZABILITY =     0.452947389

 COMPUTING DYNAMIC POLARIZABILTY FOR IMAGINARY FREQUENCY   2.3075922I (A.U.)
 GMRES CONVERGED IN                      8 ITERATIONS
 GMRES CONVERGED IN                      8 ITERATIONS
 GMRES CONVERGED IN                      8 ITERATIONS

[...]
           UY     0.001321647    0.008368889    0.000596665
           UZ     0.000479623    0.000587090    0.007026468

           MEAN ALPHA POLARIZABILITY =     0.007753512


  LMO ALPHA POLARIZABILITY TENSOR FOR BOND BETWEEN ATOM  1 AND ATOM  4
                      UX             UY             UZ
           UX     0.007016127   -0.000092145    0.000626303
           UY    -0.000094837    0.006805712   -0.000280795
           UZ     0.000644195   -0.000279158    0.009360981

           MEAN ALPHA POLARIZABILITY =     0.007727607


  LMO ALPHA POLARIZABILITY TENSOR FOR BOND BETWEEN ATOM  1 AND ATOM  5
                      UX             UY             UZ
           UX     0.008685101   -0.000037640   -0.001279834
           UY    -0.000042870    0.006766757   -0.000006355
           UZ    -0.001295338   -0.000009281    0.007760958

           MEAN ALPHA POLARIZABILITY =     0.007737605


  LMO ALPHA POLARIZABILITY TENSOR FOR BOND BETWEEN ATOM  1 AND ATOM  3
                      UX             UY             UZ
           UX     0.007466870   -0.001256874    0.000175970
           UY    -0.001268960    0.008907708   -0.000363056
           UZ     0.000172701   -0.000352184    0.006863534

           MEAN ALPHA POLARIZABILITY =     0.007746038


               -----------------------------------
                TOTAL ALPHA POLARIZABILITY TENSOR 
               -----------------------------------
                      UX             UY             UZ
           UX     0.031464327   -0.000086338    0.000001698
           UY    -0.000086338    0.031274441   -0.000054579
           UZ     0.000001698   -0.000054579    0.031441444

           MEAN ALPHA POLARIZABILITY =     0.031393404

 COMPUTING DYNAMIC POLARIZABILTY FOR IMAGINARY FREQUENCY  32.2390801I (A.U.)
 GMRES CONVERGED IN                      5 ITERATIONS
 GMRES CONVERGED IN                      5 ITERATIONS
 GMRES CONVERGED IN                      5 ITERATIONS

          -----------------------------------
           LOCALIZED ALPHA POLARIZABILITIES 
                 IN ANGSTROMS**3            
          -----------------------------------

           CORE ALPHA POLARIZABILITY TENSOR 
                      UX             UY             UZ
           UX     0.000061829   -0.000000005    0.000000164
           UY    -0.000000005    0.000061099   -0.000000075
           UZ     0.000000164   -0.000000076    0.000061623

           MEAN ALPHA POLARIZABILITY =     0.000061517


  LMO ALPHA POLARIZABILITY TENSOR FOR BOND BETWEEN ATOM  1 AND ATOM  2
                      UX             UY             UZ
           UX     0.000283472    0.000037741    0.000013668
           UY     0.000038833    0.000300859    0.000017735
           UZ     0.000013737    0.000017278    0.000259197

           MEAN ALPHA POLARIZABILITY =     0.000281176


  LMO ALPHA POLARIZABILITY TENSOR FOR BOND BETWEEN ATOM  1 AND ATOM  4
                      UX             UY             UZ
           UX     0.000257412   -0.000002779    0.000018553
           UY    -0.000002848    0.000252168   -0.000007939
           UZ     0.000019242   -0.000007999    0.000326954

           MEAN ALPHA POLARIZABILITY =     0.000278845


  LMO ALPHA POLARIZABILITY TENSOR FOR BOND BETWEEN ATOM  1 AND ATOM  5
                      UX             UY             UZ
           UX     0.000306691   -0.000001090   -0.000037803
           UY    -0.000001225    0.000250998   -0.000000224
           UZ    -0.000038402   -0.000000291    0.000278928

           MEAN ALPHA POLARIZABILITY =     0.000278873


  LMO ALPHA POLARIZABILITY TENSOR FOR BOND BETWEEN ATOM  1 AND ATOM  3
                      UX             UY             UZ
           UX     0.000270499   -0.000036001    0.000004724
           UY    -0.000036889    0.000315072   -0.000010382
           UZ     0.000004564   -0.000009798    0.000253316

           MEAN ALPHA POLARIZABILITY =     0.000279629


               -----------------------------------
                TOTAL ALPHA POLARIZABILITY TENSOR 
               -----------------------------------
                      UX             UY             UZ
           UX     0.001179904   -0.000002134   -0.000000695
           UY    -0.000002134    0.001180195   -0.000000886
           UZ    -0.000000695   -0.000000886    0.001180018

           MEAN ALPHA POLARIZABILITY =     0.001180039

 ...... DONE WITH CPHF CONTRIBUTIONS ......
 STEP CPU TIME =     0.03 TOTAL CPU TIME =        0.4 (    0.0 MIN)
 TOTAL WALL CLOCK TIME=        1.5 SECONDS, CPU UTILIZATION IS  29.73%

 RUNTYP=MAKEFP IS NOW GENERATING EXCHANGE REPULSION DATA
 RUNTYP=MAKEFP HAS JUST FINISHED DOING THAT.

 RUNTYP=MAKEFP IS NOW GENERATING SCREENING PARAMETERS.


     ---------------------------------------
     EFFECTIVE POTENTIAL SCREENING PARAMETER
              OPTIMIZATION PROGRAM
     ---------------------------------------
     AUTHORS: WALT STEVENS, MARK FREITAG, LYUDMILA SLIPCHENKO

 THE $DAMP INPUT DATA FOR THIS RUN IS:
 ISCCHG =     0
 THRSH  = 500.0
 MAXIT  =    30
 NMAIN  =     5
 INITIAL FIT WILL USE EXP. CH-CH  FORM WITH    FIXED LINEAR COEFICIENTS
  SECOND FIT WILL USE    GAUSSIAN FORM WITH    FIXED LINEAR COEFICIENTS

 THE CLASSICAL MULTIPOLE EXPANSION TO BE SCREENED IS

 CENTERS OF THE DISTRIBUTED MULTIPOLE EXPANSION, X,Y,Z
     C          4.98888   5.23454   5.46131
     H          3.72276   3.85504   4.89439
     H          3.87394   6.97309   5.12116
     H          5.49910   5.00777   7.40773
     H          6.68963   5.21564   4.27078
     BO21       4.35582   4.54479   5.17785
     BO31       4.43141   6.10381   5.29123
     BO41       5.24399   5.12116   6.43452
     BO51       5.83925   5.22509   4.86604

 CHARGES             Q
     C         -5.65143
     H         -0.74767
     H         -0.76236
     H         -0.75232
     H         -0.76111
     BO21      -0.38356
     BO31      -0.28339
     BO41      -0.34537
     BO51      -0.31279

 DIPOLES             X         Y         Z
     C          0.00034  -0.01723   0.00855
     H         -0.02637  -0.01367  -0.01105
     H         -0.02678   0.02535  -0.00979
     H          0.01146  -0.00509   0.04010
     H          0.03655  -0.00019  -0.02498
     BO21       0.15477   0.21092   0.07111
     BO31       0.12092  -0.27105   0.02288
     BO41      -0.07507   0.00482  -0.25079
     BO51      -0.21415  -0.01886   0.16802

 QUADRUPOLES        XX        YY        ZZ        XY        XZ        YZ
     C         -3.68966  -3.70909  -3.69678   0.01041   0.01030   0.00170
     H         -0.46345  -0.45393  -0.46430   0.00313   0.00062   0.00178
     H         -0.49708  -0.48752  -0.49675  -0.00040  -0.00039   0.00059
     H         -0.46884  -0.46888  -0.46538  -0.00002   0.00054  -0.00025
     H         -0.48337  -0.48478  -0.48379  -0.00009  -0.00120   0.00007
     BO21      -0.30671  -0.30267  -0.30387   0.00023  -0.00124   0.00013
     BO31      -0.16246  -0.17482  -0.16386   0.01855  -0.00021   0.00627
     BO41      -0.26638  -0.26500  -0.27399   0.01204   0.00541   0.00513
     BO51      -0.23180  -0.23392  -0.21493   0.01089   0.01090   0.00191

 OCTUPOLES
     C         -0.07778  -0.14370  -0.11840  -0.01640   0.10820
                0.13617   0.05890  -0.10509  -0.00043   0.01705
     H         -0.03790  -0.00820  -0.01643  -0.00246  -0.00447
               -0.00953  -0.00360  -0.01293  -0.00484   0.00138
     H         -0.04217   0.02729  -0.01610   0.01043  -0.00509
               -0.01081  -0.00461  -0.01436   0.01237  -0.00056
     H          0.01796  -0.00800   0.05346  -0.00261   0.02031
                0.00600   0.02075   0.00380  -0.00167   0.00024
     H          0.05278  -0.00024  -0.03768   0.00001  -0.00937
                0.01939  -0.01321   0.01665  -0.00004  -0.00006
     BO21       0.52619   0.75935   0.24264   0.25402   0.08170
                0.17590   0.08148   0.17513   0.25245   0.00081
     BO31       0.43991  -1.06151   0.08692  -0.36233   0.00896
                0.13203   0.01811   0.15619  -0.35316  -0.00671
     BO41      -0.28956  -0.01038  -0.91429  -0.00821  -0.30670
               -0.10309  -0.30708  -0.09671  -0.00171  -0.00339
     BO51      -0.80461  -0.09593   0.66764  -0.03689   0.21362
               -0.27385   0.20970  -0.26037  -0.03382  -0.00428


                         *****   WARNING   *****
 NO $DAMPGS CHARGE PENETRATION SCREENING INPUT WAS FOUND, CONTINUING...
   THIS INPUT GROUP LETS YOU ASSIGN EXACTLY EQUAL SCREENING EXPONENTS
   TO ANY SYMMETRY EQUIVALENT ATOMS AND BOND CENTERS, AND IT IS USUALLY
   A VERY GOOD IDEA TO ENTER THIS DATA.


 NUMBER OF OPTIMIZED PARAMETERS IS   9

 INITIAL VALUES OF SCREENING PARAMETERS ARE:
 NAME        COEF       EXP
 C          1.00000   2.00000
 H          1.00000   2.00000
 H          1.00000   2.00000
 H          1.00000   2.00000
 H          1.00000   2.00000
 BO21       1.00000   4.00000
 BO31       1.00000   4.00000
 BO41       1.00000   4.00000
 BO51       1.00000   4.00000

 QUANTUM ELECTROSTATIC POTENTIAL GRID IS GENERATED BY $PDC PTSEL=GEODESIC
 POINT SELECTION IS USING VDWSCL=  0.700
  MEMORY FOR PDCPTS:                 307920
 GAVEZZOTTI RADII USED FOR CHARGE FITTING
          EFP CENTER      VDW RADIUS
          C               2.83 BOHR
          H               2.27 BOHR
          H               2.27 BOHR
          H               2.27 BOHR
          H               2.27 BOHR
 RADIUS FOR BOND MID-POINT BETWEEN ATOMS  2 AND  1
          BO21            2.55 BOHR
 RADIUS FOR BOND MID-POINT BETWEEN ATOMS  3 AND  1
          BO31            2.55 BOHR
 RADIUS FOR BOND MID-POINT BETWEEN ATOMS  4 AND  1
          BO41            2.55 BOHR
 RADIUS FOR BOND MID-POINT BETWEEN ATOMS  5 AND  1
          BO51            2.55 BOHR
 {3,5+}NH,NK TEMPLATE USED, NH= 3 NK= 0
 NUMBER OF POINTS SELECTED FOR FITTING =    4081

  TO SIMULATE EVEN POINT DENSITY IN GEODES GRID
  TOTAL NUMBER OF POINTS WAS ARTIFICIALLY INCREASED
  TO      28118
 DAMPING COMPUTATION NEEDS       45152 WORDS
 PLUS       225552 WORDS

 ----- THE ELECTROSTATIC POTENTIAL GRID CONTAINS     4081 POINTS -----
 ----- THE QUANTUM POTENTIAL HAS BEEN GENERATED ON THE GRID -----
 ----- THE UNSCREENED CLASSICAL POTENTIAL GRID HAS BEEN GENERATED -----
 ELECTROSTATIC POTENTIAL CPU TIME: QUANTUM=     0.1, CLASSICAL=    0.01

 *** SINGLE EXPONENTIAL USED AS DAMPING FUNCTION ***
  CHARGE-CHARGE SCREENING WILL BE PERFORMED 

 FITTING SCREENED MULTIPOLE CLASSICAL POTENTIAL TO THE QUANTUM POTENTIAL...
  INITIAL ALPHAS ARE    2.000   2.000   2.000   2.000   2.000   4.000   4.000   4.000   4.000
 INITIAL CHI^2 =       2.20339713
 POWELL PROCEDURE, ITERATION      1 CHI^2 =       0.77796851
 POWELL PROCEDURE, ITERATION      2 CHI^2 =       0.66056363
 POWELL PROCEDURE, ITERATION      3 CHI^2 =       0.78424709
 POWELL PROCEDURE, ITERATION      4 CHI^2 =       0.72092005
 POWELL PROCEDURE, ITERATION      5 CHI^2 =       0.72916161
 POWELL PROCEDURE, ITERATION      6 CHI^2 =       0.60726396
 POWELL PROCEDURE, ITERATION      7 CHI^2 =       0.54950954
 POWELL PROCEDURE, ITERATION      8 CHI^2 =       0.54067193
 POWELL PROCEDURE, ITERATION      9 CHI^2 =       0.53401486
 POWELL PROCEDURE, ITERATION     10 CHI^2 =       0.53333053
 POWELL PROCEDURE, ITERATION     11 CHI^2 =       0.53295647
 POWELL PROCEDURE, ITERATION     12 CHI^2 =       0.53254096
 POWELL PROCEDURE, ITERATION     13 CHI^2 =       0.53247452
 POWELL PROCEDURE, ITERATION     14 CHI^2 =       0.53218962
 POWELL PROCEDURE, ITERATION     15 CHI^2 =       0.53212955
 POWELL PROCEDURE, ITERATION     16 CHI^2 =       0.53209924
 POWELL PROCEDURE, ITERATION     17 CHI^2 =       0.53205331
 POWELL PROCEDURE, ITERATION     18 CHI^2 =       0.53202837
 POWELL PROCEDURE, ITERATION     19 CHI^2 =       0.53184979
 POWELL PROCEDURE, ITERATION     20 CHI^2 =       0.53182672
 POWELL PROCEDURE, ITERATION     21 CHI^2 =       0.53178701
 POWELL PROCEDURE, ITERATION     22 CHI^2 =       0.53178454
 POWELL PROCEDURE, ITERATION     23 CHI^2 =       0.53178088
 FUNCTION WAS EVALUATED   2489 TIMES
 POWELL MINIMIZATION PROCEDURE CONVERGED IN    24 ITERATIONS
 ENDING VALUE OF CHI^2 IS      0.53178051
 OPTIMIZED NONLINEAR PARAMETERS ARE
    1.8728   1.7549   1.6974   1.7792   1.7627   2.0675   1.6692   1.6141
   1.5291
 POWELL PROCEDURE REQUIRED     3.6 SECONDS

               ----- OPTIMIZED SCREENING PARAMETERS ----- 
 NAME          X        Y        Z               COEF                 ALPHA
 C          4.9889   5.2345   5.4613         1.0000000000         1.8728268435
 H          3.7228   3.8550   4.8944         1.0000000000         1.7548626522
 H          3.8739   6.9731   5.1212         1.0000000000         1.6974001635
 H          5.4991   5.0078   7.4077         1.0000000000         1.7791839131
 H          6.6896   5.2156   4.2708         1.0000000000         1.7627204855
 BO21       4.3558   4.5448   5.1778         1.0000000000         2.0675277239
 BO31       4.4314   6.1038   5.2912         1.0000000000         1.6691791368
 BO41       5.2440   5.1212   6.4345         1.0000000000         1.6141406263
 BO51       5.8393   5.2251   4.8660         1.0000000000         1.5291137469

 STATISTICS FOR UNSCREENED MULTIPOLES
 ------------------------------------
 AVERAGE UNSIGNED ERROR        (      4081 PTS) = 5.103696E+00
 RMS DEVIATION                 (      4081 PTS) = 1.178021E+01
 RMS DEVIATION (ERR > THRSH/8) (         4 PTS) = 7.567727E+01
 RMS DEVIATION (ERR > THRSH/4) (         0 PTS) = 0.000000E+00
 RMS DEVIATION (ERR > THRSH/2) (         0 PTS) = 0.000000E+00
 RMS DEVIATION (ERR > THRSH)   (         0 PTS) = 0.000000E+00
 
 EFFECTIVE AV. UNSIGNED ERROR  (     28118 PTS) = 7.407420E-01
 EFFECTIVE RMS DEVIATION       (     28118 PTS) = 4.487440E+00


 STATISTICS FOR SCREENED MULTIPOLES
 ----------------------------------
 AVERAGE UNSIGNED ERROR        (      4081 PTS) = 5.710564E-01
 RMS DEVIATION                 (      4081 PTS) = 1.228863E+00
 RMS DEVIATION (ERR > THRSH/8) (         0 PTS) = 0.000000E+00
 RMS DEVIATION (ERR > THRSH/4) (         0 PTS) = 0.000000E+00
 RMS DEVIATION (ERR > THRSH/2) (         0 PTS) = 0.000000E+00
 RMS DEVIATION (ERR > THRSH)   (         0 PTS) = 0.000000E+00
 
 EFFECTIVE AV. UNSIGNED ERROR  (     28118 PTS) = 8.288218E-02
 EFFECTIVE RMS DEVIATION       (     28118 PTS) = 4.681112E-01


 GRID POINTS WITH ERRORS (QUANTUM - EITHER FIT) GREATER THAN  500.00 KCAL/MOL
   POINT  CENTER  DISTANCE   X     Y       Z    QUANTUM      DIFF      DIFF   
                  FROM ORIGIN                              SCREEN  NOSCREEN

 ..... DONE WITH CHARGE PENETRATION SCREENING .....
 STEP CPU TIME =     3.72 TOTAL CPU TIME =        4.2 (    0.1 MIN)
 TOTAL WALL CLOCK TIME=        5.2 SECONDS, CPU UTILIZATION IS  79.85%

 *** SINGLE GAUSSIAN USED AS DAMPING FUNCTION ***

 FITTING SCREENED MULTIPOLE CLASSICAL POTENTIAL TO THE QUANTUM POTENTIAL...
  INITIAL ALPHAS ARE    1.084   1.084   1.084   1.084   1.084   4.335   4.335   4.335   4.335
 INITIAL CHI^2 =       3.10334596
 POWELL PROCEDURE, ITERATION      1 CHI^2 =       1.54576398
 POWELL PROCEDURE, ITERATION      2 CHI^2 =       1.42964961
 POWELL PROCEDURE, ITERATION      3 CHI^2 =       1.42266682
 POWELL PROCEDURE, ITERATION      4 CHI^2 =       1.42266503
 FUNCTION WAS EVALUATED    451 TIMES
 POWELL MINIMIZATION PROCEDURE ALMOST CONVERGED IN     4 ITERATIONS
 ENDING VALUE OF CHI^2 IS      1.42266503
 OPTIMIZED NONLINEAR PARAMETERS ARE
    0.7611   0.8919   0.8562   0.8859   0.8777  10.0000  10.2059  10.0000
  10.0000
 POWELL PROCEDURE REQUIRED     0.7 SECONDS

               ----- OPTIMIZED SCREENING PARAMETERS ----- 
 NAME          X        Y        Z               COEF                 ALPHA
 C          4.9889   5.2345   5.4613         1.0000000000         0.7611425601
 H          3.7228   3.8550   4.8944         1.0000000000         0.8919449086
 H          3.8739   6.9731   5.1212         1.0000000000         0.8561821151
 H          5.4991   5.0078   7.4077         1.0000000000         0.8859150550
 H          6.6896   5.2156   4.2708         1.0000000000         0.8777097516
 BO21       4.3558   4.5448   5.1778         1.0000000000        10.0000000000
 BO31       4.4314   6.1038   5.2912         1.0000000000        10.2059405197
 BO41       5.2440   5.1212   6.4345         1.0000000000        10.0000000000
 BO51       5.8393   5.2251   4.8660         1.0000000000        10.0000000000

 STATISTICS FOR UNSCREENED MULTIPOLES
 ------------------------------------
 AVERAGE UNSIGNED ERROR        (      4081 PTS) = 5.103696E+00
 RMS DEVIATION                 (      4081 PTS) = 1.178021E+01
 RMS DEVIATION (ERR > THRSH/8) (         4 PTS) = 7.567727E+01
 RMS DEVIATION (ERR > THRSH/4) (         0 PTS) = 0.000000E+00
 RMS DEVIATION (ERR > THRSH/2) (         0 PTS) = 0.000000E+00
 RMS DEVIATION (ERR > THRSH)   (         0 PTS) = 0.000000E+00
 
 EFFECTIVE AV. UNSIGNED ERROR  (     28118 PTS) = 7.407420E-01
 EFFECTIVE RMS DEVIATION       (     28118 PTS) = 4.487440E+00


 STATISTICS FOR SCREENED MULTIPOLES
 ----------------------------------
 AVERAGE UNSIGNED ERROR        (      4081 PTS) = 1.474326E+00
 RMS DEVIATION                 (      4081 PTS) = 3.183021E+00
 RMS DEVIATION (ERR > THRSH/8) (         0 PTS) = 0.000000E+00
 RMS DEVIATION (ERR > THRSH/4) (         0 PTS) = 0.000000E+00
 RMS DEVIATION (ERR > THRSH/2) (         0 PTS) = 0.000000E+00
 RMS DEVIATION (ERR > THRSH)   (         0 PTS) = 0.000000E+00
 
 EFFECTIVE AV. UNSIGNED ERROR  (     28118 PTS) = 2.139812E-01
 EFFECTIVE RMS DEVIATION       (     28118 PTS) = 1.212509E+00


 GRID POINTS WITH ERRORS (QUANTUM - EITHER FIT) GREATER THAN  500.00 KCAL/MOL
   POINT  CENTER  DISTANCE   X     Y       Z    QUANTUM      DIFF      DIFF   
                  FROM ORIGIN                              SCREEN  NOSCREEN

 ..... DONE WITH CHARGE PENETRATION SCREENING .....
 STEP CPU TIME =     0.65 TOTAL CPU TIME =        4.8 (    0.1 MIN)
 TOTAL WALL CLOCK TIME=        5.9 SECONDS, CPU UTILIZATION IS  82.08%

 PROCESSING $STONE INPUT...
 THE NUMBER OF "BOUNDARY" CORE MOS IS  0
 THE NUMBER OF MOS WITH ZERO OCCUPATION NUMBER IS  0
  
  ****************************************
  MULTIPOLE EXPANSION FOR EVERY LMO AT ITS
  CENTROID USING ITS OWN ELECTRON DENSITY 
     - NANDUN THELLAMUREGE AND HUI LI -   
  ****************************************
  
 MULTIPOLE EXPANSION FOR LMO             1
 TOTAL ELECTRON CHARGE =     -2.0000000000
 MULTIPOLE EXPANSION FOR LMO             2
 TOTAL ELECTRON CHARGE =     -2.0000000000
 MULTIPOLE EXPANSION FOR LMO             3
 TOTAL ELECTRON CHARGE =     -2.0000000000
 MULTIPOLE EXPANSION FOR LMO             4
 TOTAL ELECTRON CHARGE =     -2.0000000000
 MULTIPOLE EXPANSION FOR LMO             5
 TOTAL ELECTRON CHARGE =     -2.0000000000
  
  DONE WITH LMO EXPANSION.
 STEP CPU TIME =     0.00 TOTAL CPU TIME =        4.8 (    0.1 MIN)
 TOTAL WALL CLOCK TIME=        5.9 SECONDS, CPU UTILIZATION IS  81.94%
               2001912  WORDS OF DYNAMIC MEMORY USED
 EXECUTION OF GAMESS TERMINATED NORMALLY Mon Dec 28 15:10:27 2020
 DDI: 263624 bytes (0.3 MB / 0 MWords) used by master data server.

 ----------------------------------------
 CPU timing information for all processes
 ========================================
 0: 4.755 + 0.63 = 4.819
 ----------------------------------------
 ddikick.x: exited gracefully.
----- accounting info -----
Files used on the master node halstead-a047.rcac.purdue.edu were:
-rw-r--r-- 1 cviquezr student     476 Dec 28 15:10 /scratch/halstead/c/cviquezr/mol1_63_s.F05
-rw-r--r-- 1 cviquezr student  182232 Dec 28 15:10 /scratch/halstead/c/cviquezr/mol1_63_s.F09
-rw-r--r-- 1 cviquezr student 1243360 Dec 28 15:10 /scratch/halstead/c/cviquezr/mol1_63_s.F10
-rw-r--r-- 1 cviquezr student   64808 Dec 28 15:10 /scratch/halstead/c/cviquezr/mol1_63_s.F16
-rw-r--r-- 1 cviquezr student   64808 Dec 28 15:10 /scratch/halstead/c/cviquezr/mol1_63_s.F67
Mon Dec 28 15:10:30 EST 2020
0.221u 0.083s 0:10.41 2.8%	0+0k 184+8io 1pf+0w
