This is a multi-thread run using 20 threads
/depot/lslipche/apps/qchem/QCHEM_5.2.1//exe/qcprog.exe .mol1_63_s_water_5_gas.in.16060.qcin.1 /scratch/halstead/c/cviquezr/qchem16060/

                  Welcome to Q-Chem
     A Quantum Leap Into The Future Of Chemistry


 Q-Chem 5.2 (devel), Q-Chem, Inc., Pleasanton, CA (2019)

 Yihan Shao,  Zhengting Gan,  E. Epifanovsky,  A. T. B. Gilbert,  M. Wormit,  
 J. Kussmann,  A. W. Lange,  A. Behn,  Jia Deng,  Xintian Feng,  D. Ghosh,  
 M. Goldey,  P. R. Horn,  L. D. Jacobson,  I. Kaliman,  T. Kus,  A. Landau,  
 Jie Liu,  E. I. Proynov,  R. M. Richard,  R. P. Steele,  E. J. Sundstrom,  
 H. L. Woodcock III,  P. M. Zimmerman,  D. Zuev,  B. Albrecht,  E. Alguire,  
 S. A. Baeppler,  D. Barton,  Z. Benda,  Y. A. Bernard,  E. J. Berquist,  
 K. B. Bravaya,  H. Burton,  D. Casanova,  Chun-Min Chang,  Yunqing Chen,  
 A. Chien,  K. D. Closser,  M. P. Coons,  S. Coriani,  S. Dasgupta,  
 A. L. Dempwolff,  M. Diedenhofen,  Hainam Do,  R. G. Edgar,  Po-Tung Fang,  
 S. Faraji,  S. Fatehi,  Qingguo Feng,  K. D. Fenk,  J. Fosso-Tande,  
 J. Gayvert,  Qinghui Ge,  A. Ghysels,  G. Gidofalvi,  J. Gomes,  
 J. Gonthier,  A. Gunina,  D. Hait,  M. W. D. Hanson-Heine,  
 P. H. P. Harbach,  A. W. Hauser,  M. F. Herbst,  J. E. Herr,  
 E. G. Hohenstein,  Z. C. Holden,  Kerwin Hui,  B. C. Huynh,  T.-C. Jagau,  
 Hyunjun Ji,  B. Kaduk,  K. Khistyaev,  Jaehoon Kim,  P. Klunzinger,  K. Koh,  
 D. Kosenkov,  L. Koulias,  T. Kowalczyk,  C. M. Krauter,  A. Kunitsa,  
 Ka Un Lao,  A. Laurent,  K. V. Lawler,  Joonho Lee,  D. Lefrancois,  
 S. Lehtola,  D. S. Levine,  Yi-Pei Li,  You-Sheng Lin,  Fenglai Liu,  
 E. Livshits,  A. Luenser,  P. Manohar,  E. Mansoor,  S. F. Manzer,  
 Shan-Ping Mao,  Yuezhi Mao,  N. Mardirossian,  A. V. Marenich,  
 T. Markovich,  L. A. Martinez-Martinez,  S. A. Maurer,  N. J. Mayhall,  
 S. C. McKenzie,  J.-M. Mewes,  P. Morgante,  A. F. Morrison,  
 J. W. Mullinax,  K. Nanda,  T. S. Nguyen-Beck,  R. Olivares-Amaya,  
 J. A. Parkhill,  Zheng Pei,  T. M. Perrine,  F. Plasser,  P. Pokhilko,  
 S. Prager,  A. Prociuk,  E. Ramos,  D. R. Rehn,  F. Rob,  M. Scheurer,  
 M. Schneider,  N. Sergueev,  S. M. Sharada,  S. Sharma,  D. W. Small,  
 T. Stauch,  T. Stein,  Yu-Chuan Su,  A. J. W. Thom,  A. Tkatchenko,  
 T. Tsuchimochi,  N. M. Tubman,  L. Vogt,  M. L. Vidal,  O. Vydrov,  
 M. A. Watson,  J. Wenzel,  M. de Wergifosse,  T. A. Wesolowski,  A. White,  
 J. Witte,  A. Yamada,  Jun Yang,  K. Yao,  S. Yeganeh,  S. R. Yost,  
 Zhi-Qiang You,  A. Zech,  Igor Ying Zhang,  Xing Zhang,  Yan Zhao,  
 Ying Zhu,  B. R. Brooks,  G. K. L. Chan,  C. J. Cramer,  M. S. Gordon,  
 W. J. Hehre,  A. Klamt,  M. W. Schmidt,  C. D. Sherrill,  D. G. Truhlar,  
 A. Aspuru-Guzik,  R. Baer,  A. T. Bell,  N. A. Besley,  Jeng-Da Chai,  
 A. E. DePrince, III,  R. A. DiStasio Jr.,  A. Dreuw,  B. D. Dunietz,  
 T. R. Furlani,  Chao-Ping Hsu,  Yousung Jung,  Jing Kong,  D. S. Lambrecht,  
 WanZhen Liang,  C. Ochsenfeld,  V. A. Rassolov,  L. V. Slipchenko,  
 J. E. Subotnik,  T. Van Voorhis,  J. M. Herbert,  A. I. Krylov,  
 P. M. W. Gill,  M. Head-Gordon

 Contributors to earlier versions of Q-Chem not listed above: 
 R. D. Adamson,  B. Austin,  J. Baker,  G. J. O. Beran,  K. Brandhorst,  
 S. T. Brown,  E. F. C. Byrd,  A. K. Chakraborty,  C.-L. Cheng,  
 Siu Hung Chien,  D. M. Chipman,  D. L. Crittenden,  H. Dachsel,  
 R. J. Doerksen,  A. D. Dutoi,  L. Fusti-Molnar,  W. A. Goddard III,  
 A. Golubeva-Zadorozhnaya,  S. R. Gwaltney,  G. Hawkins,  A. Heyden,  
 S. Hirata,  G. Kedziora,  F. J. Keil,  C. Kelley,  Jihan Kim,  R. A. King,  
 R. Z. Khaliullin,  P. P. Korambath,  W. Kurlancheek,  A. M. Lee,  M. S. Lee,  
 S. V. Levchenko,  Ching Yeh Lin,  D. Liotard,  R. C. Lochan,  I. Lotan,  
 P. E. Maslen,  N. Nair,  D. P. O'Neill,  D. Neuhauser,  E. Neuscamman,  
 C. M. Oana,  R. Olson,  B. Peters,  R. Peverati,  P. A. Pieniazek,  
 Y. M. Rhee,  J. Ritchie,  M. A. Rohrdanz,  E. Rosta,  N. J. Russ,  
 H. F. Schaefer III,  N. E. Schultz,  N. Shenvi,  A. C. Simmonett,  A. Sodt,  
 D. Stuck,  K. S. Thanthiriwatte,  V. Vanovschi,  Tao Wang,  A. Warshel,  
 C. F. Williams,  Q. Wu,  X. Xu,  W. Zhang

 Please cite Q-Chem as follows:
 Y. Shao et al., Mol. Phys. 113, 184-215 (2015)
 DOI: 10.1080/00268976.2014.952696

 Q-Chem 5.2.1 for Intel X86 EM64T Linux

 Parts of Q-Chem use Armadillo 8.300.2 (Tropical Shenanigans).
 http://arma.sourceforge.net/

 Q-Chem begins on Mon Dec 28 18:35:39 2020  

Host: halstead-a187.rcac.purdue.edu
0

     Scratch files written to /scratch/halstead/c/cviquezr/qchem16060//
NAlpha2: 10
NElect   10
Mult     1

Checking the input file for inconsistencies... 	...done.

--------------------------------------------------------------
User input:
--------------------------------------------------------------
$molecule
   0 1
   C                0.020680    -0.011600     0.013800
   H               -0.649249    -0.743985    -0.280493
   H               -0.572823     0.906472    -0.164518
   H                0.297346    -0.128678     1.042366
   H                0.916797    -0.020617    -0.621726
$end

$rem
   METHOD               wB97X
   BASIS                6-31G*
   JOBTYPE              sp
   EFP_COORD_XYZ        true
   EFP_FRAGMENTS_ONLY   true
   EFP_DISP_DAMP        1
   EFP_QM_DISP          true
   EFP_QM_EXREP         true
   EFP_DISP_DAMP        2
   SYM_IGNORE           true
$end

--------------------------------------------------------------
 ----------------------------------------------------------------
             Standard Nuclear Orientation (Angstroms)
    I     Atom           X                Y                Z
 ----------------------------------------------------------------
    1      C       0.0206800000    -0.0116000000     0.0138000000
    2      H      -0.6492490000    -0.7439850000    -0.2804930000
    3      H      -0.5728230000     0.9064720000    -0.1645180000
    4      H       0.2973460000    -0.1286780000     1.0423660000
    5      H       0.9167970000    -0.0206170000    -0.6217260000
 ----------------------------------------------------------------
 Nuclear Repulsion Energy =          13.59241151 hartrees
 There are        5 alpha and        5 beta electrons
 Requested basis set is 6-31G(d)
 There are 12 shells and 23 basis functions

 Total QAlloc Memory Limit   2000 MB
 Mega-Array Size       188 MB
 MEM_STATIC part       192 MB

                       Distance Matrix (Angstroms)
             C (  1)   H (  2)   H (  3)   H (  4)
   H (  2)  1.035278
   H (  3)  1.107655  1.656291
   H (  4)  1.071541  1.739138  1.812539
   H (  5)  1.098636  1.758466  1.813147  1.778932
 
 A cutoff of  1.0D-08 yielded     78 shell pairs
 There are       303 function pairs
 Smallest overlap matrix eigenvalue = 1.70E-02

 Scale SEOQF with 1.000000e+00/1.000000e+00/1.000000e+00

 Standard Electronic Orientation quadrupole field applied
 Guess from superposition of atomic densities
 Warning:  Energy on first SCF cycle will be non-variational
 SAD guess density has 10.000000 electrons
 Long-range K will be added via erf
 Coulomb attenuation parameter = 0.3 bohr**(-1)
 A restricted hybrid HF-DFT SCF calculation will be
 performed using Pulay DIIS extrapolation
 Exchange:     0.1577 Hartree-Fock + 1.0000 wB97X + LR-HF
 Correlation:  1.0000 wB97X
 Using SG-2 standard quadrature grid
 SCF converges when DIIS error is below 1.0E-05
 using 20 threads for integral computing
 -------------------------------------------------------
 OpenMP Integral computing Module                
 Release: version 1.0, May 2013, Q-Chem Inc. Pittsburgh 
 -------------------------------------------------------
 using 20 threads for integral computing
 -------------------------------------------------------
 OpenMP Integral computing Module                
 Release: version 1.0, May 2013, Q-Chem Inc. Pittsburgh 
 -------------------------------------------------------
 ---------------------------------------
  Cycle       Energy         DIIS Error
 ---------------------------------------
    1     -40.5127822942      1.48E-01
    2     -40.4788258920      1.56E-02
    3     -40.4885822979      9.77E-03
    4     -40.4944706877      2.80E-04
    5     -40.4944808881      4.66E-05
    6     -40.4944812038      8.79E-06 Convergence criterion met
 ---------------------------------------
 SCF time:  CPU 25.48 s  wall 1.65 s
 SCF   energy in the final basis set = -40.49448120
 Total energy in the final basis set = -40.49448120
 
 --------------------------------------------------------------
 
                    Orbital Energies (a.u.)
 --------------------------------------------------------------
 
 Alpha MOs
 -- Occupied --
-10.2419  -0.8232  -0.5125  -0.4968  -0.4830
 -- Virtual --
  0.2189   0.2714   0.2784   0.2908   0.6233   0.6384   0.6496   1.0074
  1.0215   1.0468   1.1120   1.2075   1.7582   1.7614   2.3387   2.3631
  2.4234   4.3172
 --------------------------------------------------------------
 
          Ground-State Mulliken Net Atomic Charges

     Atom                 Charge (a.u.)
  ----------------------------------------
      1 C                    -0.673980
      2 H                     0.178053
      3 H                     0.158809
      4 H                     0.172350
      5 H                     0.164769
  ----------------------------------------
  Sum of atomic charges =     0.000000

 -----------------------------------------------------------------
                    Cartesian Multipole Moments
 -----------------------------------------------------------------
    Charge (ESU x 10^10)
                -0.0000
    Dipole Moment (Debye)
         X      -0.0658      Y      -0.0397      Z      -0.0213
       Tot       0.0797
    Quadrupole Moments (Debye-Ang)
        XX      -8.0219     XY      -0.0578     YY      -8.4731
        XZ       0.0656     YZ      -0.0682     ZZ      -8.1389
    Octopole Moments (Debye-Ang^2)
       XXX      -0.2537    XXY      -0.0341    XYY      -0.7148
       YYY       0.1809    XXZ      -0.5201    XYZ      -0.0496
       YYZ      -0.2406    XZZ       0.3080    YZZ      -0.1540
       ZZZ       0.5087
    Hexadecapole Moments (Debye-Ang^3)
      XXXX     -15.3338   XXXY       0.3176   XXYY      -4.7907
      XYYY       0.1139   YYYY     -14.6431   XXXZ      -0.3215
      XXYZ       0.0862   XYYZ       0.2281   YYYZ       0.1221
      XXZZ      -4.8938   XYZZ       0.0737   YYZZ      -5.1952
      XZZZ       0.2007   YZZZ      -0.0048   ZZZZ     -14.5394
 -----------------------------------------------------------------
Archival summary:
1\1\halstead-a187.rcac.purdue.edu\SP\ProcedureUnspecified\6-31G*\14\cviquezr\MonDec2818:35:412020MonDec2818:35:412020\0\\#,ProcedureUnspecified,6-31G*,\\0,1\C\H,1,1.03528\H,1,1.07154,2,111.263\H,1,1.09864,2,110.951,3,122.956,0\H,1,1.10765,2,101.178,3,-119.755,0\\\@

 Total job time:  2.07s(wall), 30.30s(cpu) 
 Mon Dec 28 18:35:41 2020

        *************************************************************
        *                                                           *
        *  Thank you very much for using Q-Chem.  Have a nice day.  *
        *                                                           *
        *************************************************************


