This is a multi-thread run using 20 threads
/depot/lslipche/apps/qchem/QCHEM_5.2.1//exe/qcprog.exe .test.in.38969.qcin.1 /scratch/halstead/c/cviquezr/qchem38969/

                  Welcome to Q-Chem
     A Quantum Leap Into The Future Of Chemistry


 Q-Chem 5.2 (devel), Q-Chem, Inc., Pleasanton, CA (2019)

 Yihan Shao,  Zhengting Gan,  E. Epifanovsky,  A. T. B. Gilbert,  M. Wormit,  
 J. Kussmann,  A. W. Lange,  A. Behn,  Jia Deng,  Xintian Feng,  D. Ghosh,  
 M. Goldey,  P. R. Horn,  L. D. Jacobson,  I. Kaliman,  T. Kus,  A. Landau,  
 Jie Liu,  E. I. Proynov,  R. M. Richard,  R. P. Steele,  E. J. Sundstrom,  
 H. L. Woodcock III,  P. M. Zimmerman,  D. Zuev,  B. Albrecht,  E. Alguire,  
 S. A. Baeppler,  D. Barton,  Z. Benda,  Y. A. Bernard,  E. J. Berquist,  
 K. B. Bravaya,  H. Burton,  D. Casanova,  Chun-Min Chang,  Yunqing Chen,  
 A. Chien,  K. D. Closser,  M. P. Coons,  S. Coriani,  S. Dasgupta,  
 A. L. Dempwolff,  M. Diedenhofen,  Hainam Do,  R. G. Edgar,  Po-Tung Fang,  
 S. Faraji,  S. Fatehi,  Qingguo Feng,  K. D. Fenk,  J. Fosso-Tande,  
 J. Gayvert,  Qinghui Ge,  A. Ghysels,  G. Gidofalvi,  J. Gomes,  
 J. Gonthier,  A. Gunina,  D. Hait,  M. W. D. Hanson-Heine,  
 P. H. P. Harbach,  A. W. Hauser,  M. F. Herbst,  J. E. Herr,  
 E. G. Hohenstein,  Z. C. Holden,  Kerwin Hui,  B. C. Huynh,  T.-C. Jagau,  
 Hyunjun Ji,  B. Kaduk,  K. Khistyaev,  Jaehoon Kim,  P. Klunzinger,  K. Koh,  
 D. Kosenkov,  L. Koulias,  T. Kowalczyk,  C. M. Krauter,  A. Kunitsa,  
 Ka Un Lao,  A. Laurent,  K. V. Lawler,  Joonho Lee,  D. Lefrancois,  
 S. Lehtola,  D. S. Levine,  Yi-Pei Li,  You-Sheng Lin,  Fenglai Liu,  
 E. Livshits,  A. Luenser,  P. Manohar,  E. Mansoor,  S. F. Manzer,  
 Shan-Ping Mao,  Yuezhi Mao,  N. Mardirossian,  A. V. Marenich,  
 T. Markovich,  L. A. Martinez-Martinez,  S. A. Maurer,  N. J. Mayhall,  
 S. C. McKenzie,  J.-M. Mewes,  P. Morgante,  A. F. Morrison,  
 J. W. Mullinax,  K. Nanda,  T. S. Nguyen-Beck,  R. Olivares-Amaya,  
 J. A. Parkhill,  Zheng Pei,  T. M. Perrine,  F. Plasser,  P. Pokhilko,  
 S. Prager,  A. Prociuk,  E. Ramos,  D. R. Rehn,  F. Rob,  M. Scheurer,  
 M. Schneider,  N. Sergueev,  S. M. Sharada,  S. Sharma,  D. W. Small,  
 T. Stauch,  T. Stein,  Yu-Chuan Su,  A. J. W. Thom,  A. Tkatchenko,  
 T. Tsuchimochi,  N. M. Tubman,  L. Vogt,  M. L. Vidal,  O. Vydrov,  
 M. A. Watson,  J. Wenzel,  M. de Wergifosse,  T. A. Wesolowski,  A. White,  
 J. Witte,  A. Yamada,  Jun Yang,  K. Yao,  S. Yeganeh,  S. R. Yost,  
 Zhi-Qiang You,  A. Zech,  Igor Ying Zhang,  Xing Zhang,  Yan Zhao,  
 Ying Zhu,  B. R. Brooks,  G. K. L. Chan,  C. J. Cramer,  M. S. Gordon,  
 W. J. Hehre,  A. Klamt,  M. W. Schmidt,  C. D. Sherrill,  D. G. Truhlar,  
 A. Aspuru-Guzik,  R. Baer,  A. T. Bell,  N. A. Besley,  Jeng-Da Chai,  
 A. E. DePrince, III,  R. A. DiStasio Jr.,  A. Dreuw,  B. D. Dunietz,  
 T. R. Furlani,  Chao-Ping Hsu,  Yousung Jung,  Jing Kong,  D. S. Lambrecht,  
 WanZhen Liang,  C. Ochsenfeld,  V. A. Rassolov,  L. V. Slipchenko,  
 J. E. Subotnik,  T. Van Voorhis,  J. M. Herbert,  A. I. Krylov,  
 P. M. W. Gill,  M. Head-Gordon

 Contributors to earlier versions of Q-Chem not listed above: 
 R. D. Adamson,  B. Austin,  J. Baker,  G. J. O. Beran,  K. Brandhorst,  
 S. T. Brown,  E. F. C. Byrd,  A. K. Chakraborty,  C.-L. Cheng,  
 Siu Hung Chien,  D. M. Chipman,  D. L. Crittenden,  H. Dachsel,  
 R. J. Doerksen,  A. D. Dutoi,  L. Fusti-Molnar,  W. A. Goddard III,  
 A. Golubeva-Zadorozhnaya,  S. R. Gwaltney,  G. Hawkins,  A. Heyden,  
 S. Hirata,  G. Kedziora,  F. J. Keil,  C. Kelley,  Jihan Kim,  R. A. King,  
 R. Z. Khaliullin,  P. P. Korambath,  W. Kurlancheek,  A. M. Lee,  M. S. Lee,  
 S. V. Levchenko,  Ching Yeh Lin,  D. Liotard,  R. C. Lochan,  I. Lotan,  
 P. E. Maslen,  N. Nair,  D. P. O'Neill,  D. Neuhauser,  E. Neuscamman,  
 C. M. Oana,  R. Olson,  B. Peters,  R. Peverati,  P. A. Pieniazek,  
 Y. M. Rhee,  J. Ritchie,  M. A. Rohrdanz,  E. Rosta,  N. J. Russ,  
 H. F. Schaefer III,  N. E. Schultz,  N. Shenvi,  A. C. Simmonett,  A. Sodt,  
 D. Stuck,  K. S. Thanthiriwatte,  V. Vanovschi,  Tao Wang,  A. Warshel,  
 C. F. Williams,  Q. Wu,  X. Xu,  W. Zhang

 Please cite Q-Chem as follows:
 Y. Shao et al., Mol. Phys. 113, 184-215 (2015)
 DOI: 10.1080/00268976.2014.952696

 Q-Chem 5.2.1 for Intel X86 EM64T Linux

 Parts of Q-Chem use Armadillo 8.300.2 (Tropical Shenanigans).
 http://arma.sourceforge.net/

 Q-Chem begins on Sat Dec 26 20:55:51 2020  

Host: halstead-a021.rcac.purdue.edu
0

     Scratch files written to /scratch/halstead/c/cviquezr/qchem38969//
NAlpha2: 80
NElect   80
Mult     1
Symmetry disabled for AIMD jobs.

Checking the input file for inconsistencies... 	...done.

--------------------------------------------------------------
User input:
--------------------------------------------------------------
$molecule
   0  1
   C    2.73000    2.74000    2.71000
   H    2.07000    1.89000    2.41000
   H    2.27000    3.72000    2.42000
   H    2.82000    2.71000    3.81000
   H    3.76000    2.63000    2.30000
   O    4.90000    4.36000    1.35000
   H    5.83000    4.43000    0.99000
   H    4.30000    3.95000    0.66000
   O    1.22000    0.32000    2.62000
   H    1.08000    0.34000    1.63000
   H    1.76000   -0.48000    2.88000
   O    1.43000    1.28000    0.37000
   H    2.22000    0.77000    0.06000
   H    1.19000    1.99000   -0.29000
   O    4.00000    1.21000    0.25000
   H    3.90000    1.53000    1.19000
   H    4.77000    1.68000   -0.19000
   O    4.85000    4.61000    3.10000
   H    5.51000    4.01000    3.56000
   H    4.04000    4.08000    2.84000
   O    0.43000    2.52000    1.36000
   H   -0.08000    2.84000    2.16000
   H    1.33000    2.96000    1.33000
   O    5.53000    5.52000    5.00000
   H    6.10000    4.73000    4.76000
   H    4.76000    5.59000    4.37000

$rem
   JOBTYPE              aimd
   AIMD_METHOD          bomd
   METHOD               wb97
   BASIS                6-31g*
   TIME_STEP            15        (15 a.u. = 0.363 fs)
   AIMD_STEPS           100
   AIMD_INIT_VELOC      thermal
   AIMD_TEMP            298
   FOCK_EXTRAP_ORDER    6         request Fock matrix extrapolation
   FOCK_EXTRAP_POINTS   12
   SCF_CONVERGENCE      6
   MAX_SCF_CYCLES       100
$end
--------------------------------------------------------------
 ----------------------------------------------------------------
             Standard Nuclear Orientation (Angstroms)
    I     Atom           X                Y                Z
 ----------------------------------------------------------------
    1      C       2.7300000000     2.7400000000     2.7100000000
    2      H       2.0700000000     1.8900000000     2.4100000000
    3      H       2.2700000000     3.7200000000     2.4200000000
    4      H       2.8200000000     2.7100000000     3.8100000000
    5      H       3.7600000000     2.6300000000     2.3000000000
    6      O       4.9000000000     4.3600000000     1.3500000000
    7      H       5.8300000000     4.4300000000     0.9900000000
    8      H       4.3000000000     3.9500000000     0.6600000000
    9      O       1.2200000000     0.3200000000     2.6200000000
   10      H       1.0800000000     0.3400000000     1.6300000000
   11      H       1.7600000000    -0.4800000000     2.8800000000
   12      O       1.4300000000     1.2800000000     0.3700000000
   13      H       2.2200000000     0.7700000000     0.0600000000
   14      H       1.1900000000     1.9900000000    -0.2900000000
   15      O       4.0000000000     1.2100000000     0.2500000000
   16      H       3.9000000000     1.5300000000     1.1900000000
   17      H       4.7700000000     1.6800000000    -0.1900000000
   18      O       4.8500000000     4.6100000000     3.1000000000
   19      H       5.5100000000     4.0100000000     3.5600000000
   20      H       4.0400000000     4.0800000000     2.8400000000
   21      O       0.4300000000     2.5200000000     1.3600000000
   22      H      -0.0800000000     2.8400000000     2.1600000000
   23      H       1.3300000000     2.9600000000     1.3300000000
   24      O       5.5300000000     5.5200000000     5.0000000000
   25      H       6.1000000000     4.7300000000     4.7600000000
   26      H       4.7600000000     5.5900000000     4.3700000000
 ----------------------------------------------------------------
 Nuclear Repulsion Energy =         496.30094071 hartrees
 There are       40 alpha and       40 beta electrons
 Requested basis set is 6-31G(d)
 There are 68 shells and 156 basis functions

 Total QAlloc Memory Limit   2000 MB
 Mega-Array Size       188 MB
 MEM_STATIC part       192 MB
 A cutoff of  1.0D-09 yielded   1778 shell pairs
 There are      8844 function pairs
 Smallest overlap matrix eigenvalue = 5.45E-03

 Scale SEOQF with 1.000000e-02/1.000000e-02/1.000000e-01

 Standard Electronic Orientation quadrupole field applied
 Nucleus-field energy     =    -0.0000000458 hartrees
 Guess from superposition of atomic densities
 Warning:  Energy on first SCF cycle will be non-variational
 SAD guess density has 80.000000 electrons

 -----------------------------------------------------------------------
  General SCF calculation program by
  Eric Jon Sundstrom, Paul Horn, Yuezhi Mao, Dmitri Zuev, Alec White,
  David Stuck, Shaama M.S., Shane Yost, Joonho Lee, David Small,
  Daniel Levine, Susi Lehtola, Hugh Burton, Evgeny Epifanovsky,
  Bang C. Huynh
 -----------------------------------------------------------------------
 Exchange:  wB97 + LR-HF      Correlation:  wB97
 Using SG-2 standard quadrature grid
 using 20 threads for integral computing
 -------------------------------------------------------
 OpenMP Integral computing Module                
 Release: version 1.0, May 2013, Q-Chem Inc. Pittsburgh 
 -------------------------------------------------------
 using 20 threads for integral computing
 -------------------------------------------------------
 OpenMP Integral computing Module                
 Release: version 1.0, May 2013, Q-Chem Inc. Pittsburgh 
 -------------------------------------------------------
 A restricted SCF calculation will be
 performed using DIIS
 SCF converges when DIIS error is below 1.0e-06
 ---------------------------------------
  Cycle       Energy         DIIS error
 ---------------------------------------
    1    -575.4500168065      5.63e-02  
    2    -574.6210701195      1.27e-02  
    3    -574.7403615714      1.15e-02  
    4    -575.0109433683      6.67e-04  
    5    -575.0120136905      3.62e-04  
    6    -575.0123186462      1.16e-04  
    7    -575.0123536813      2.60e-05  
    8    -575.0123563676      8.97e-06  
    9    -575.0123569070      3.18e-06  
   10    -575.0123569731      1.40e-06  
   11    -575.0123569923      3.99e-07  Convergence criterion met
 ---------------------------------------
 SCF time:   CPU 93.03s  wall 6.00s 
 SCF   energy in the final basis set =     -575.0123569923
 Total energy in the final basis set =     -575.0123569923
 
 --------------------------------------------------------------
 
                    Orbital Energies (a.u.)
 --------------------------------------------------------------
 
 Alpha MOs
 -- Occupied --
-19.0451 -19.0189 -18.9992 -18.9844 -18.9833 -18.9810 -18.9439 -10.1410
 -1.1742  -1.1594  -1.1454  -1.1093  -1.0929  -1.0841  -1.0514  -0.8706
 -0.6914  -0.6851  -0.6717  -0.6519  -0.6423  -0.6196  -0.6087  -0.5588
 -0.5526  -0.5368  -0.5259  -0.5184  -0.4976  -0.4924  -0.4547  -0.4495
 -0.4272  -0.4209  -0.4131  -0.4064  -0.3799  -0.3577  -0.3555  -0.2962
 -- Virtual --
  0.1041   0.1441   0.1683   0.1840   0.1945   0.2061   0.2229   0.2348
  0.2445   0.2598   0.2751   0.2962   0.3052   0.3311   0.3442   0.3649
  0.3702   0.4836   0.6683   0.7141   0.8063   0.8518   0.8666   0.8720
  0.8850   0.8936   0.9039   0.9197   0.9269   0.9391   0.9476   0.9568
  0.9709   0.9737   0.9833   0.9942   1.0172   1.0189   1.0503   1.0612
  1.0672   1.0843   1.1062   1.1122   1.1203   1.1371   1.1467   1.1765
  1.1814   1.2062   1.2370   1.2396   1.2497   1.2544   1.2862   1.3041
  1.3168   1.3241   1.3625   1.3907   1.4021   1.4250   1.4894   1.5079
  1.5504   1.5899   1.6477   1.7462   1.7513   1.7700   1.7874   1.7969
  1.8395   1.8473   1.8594   1.8701   1.8868   1.9048   1.9105   1.9171
  1.9224   1.9438   1.9616   1.9781   1.9921   2.0185   2.1021   2.2239
  2.2419   2.2878   2.3208   2.3332   2.3429   2.3620   2.3824   2.3961
  2.4391   2.4666   2.5459   2.6203   2.6612   2.6699   2.6912   2.7159
  2.7618   2.7681   2.8994   3.0105   3.7762   3.7967   3.8186   3.8207
  3.8627   3.9518   4.0755   4.3885
 --------------------------------------------------------------
 
          Ground-State Mulliken Net Atomic Charges

     Atom                 Charge (a.u.)
  ----------------------------------------
      1 C                    -0.841631
      2 H                     0.335091
      3 H                     0.153093
      4 H                     0.202349
      5 H                     0.106185
      6 O                    -0.705282
      7 H                     0.372740
      8 H                     0.313842
      9 O                    -0.798916
     10 H                     0.433107
     11 H                     0.371676
     12 O                    -0.766416
     13 H                     0.391134
     14 H                     0.402927
     15 O                    -0.798831
     16 H                     0.416887
     17 H                     0.397251
     18 O                    -0.730923
     19 H                     0.341876
     20 H                     0.441712
     21 O                    -0.750959
     22 H                     0.369592
     23 H                     0.384148
     24 O                    -0.813405
     25 H                     0.343259
     26 H                     0.429491
  ----------------------------------------
  Sum of atomic charges =     0.000000

 -----------------------------------------------------------------
                    Cartesian Multipole Moments
 -----------------------------------------------------------------
    Charge (ESU x 10^10)
                -0.0000
    Dipole Moment (Debye)
         X       2.2409      Y      -2.6798      Z      -4.4460
       Tot       5.6542
    Quadrupole Moments (Debye-Ang)
        XX     -40.7655     XY     -16.8619     YY     -81.8519
        XZ     -20.1361     YZ     -31.8705     ZZ     -78.4326
    Octopole Moments (Debye-Ang^2)
       XXX    -409.2734    XXY    -232.6621    XYY    -358.8493
       YYY    -690.3341    XXZ    -216.3823    XYZ    -185.8890
       YYZ    -317.7651    XZZ    -301.7027    YZZ    -330.0796
       ZZZ    -502.3013
    Hexadecapole Moments (Debye-Ang^3)
      XXXX   -3475.3557   XXXY   -2098.8600   XXYY   -2341.9058
      XYYY   -3242.3144   YYYY   -5135.7934   XXXZ   -1750.6257
      XXYZ   -1384.5951   XYYZ   -1674.1111   YYYZ   -2544.9746
      XXZZ   -1782.1328   XYZZ   -1645.0004   YYZZ   -2101.0756
      XZZZ   -2112.6928   YZZZ   -2270.2549   ZZZZ   -3179.7340
 -----------------------------------------------------------------
 Calculating analytic gradient of the SCF energy
 Gradient of SCF Energy
            1           2           3           4           5           6
    1  -0.0051850  -0.0178822  -0.0142794   0.0018496   0.0156732  -0.0068759
    2   0.0058472  -0.0106538   0.0091994  -0.0018159  -0.0023176   0.0355301
    3  -0.0106645  -0.0126483  -0.0060382   0.0047438  -0.0046766   0.1999787
            7           8           9          10          11          12
    1   0.0276275  -0.0242672  -0.0075046   0.0005097   0.0183855  -0.0628001
    2   0.0021874  -0.0085508   0.0376416   0.0020647  -0.0221842   0.0635244
    3   0.0026584   0.0131908  -0.0083414  -0.0236699   0.0151084   0.0910905
           13          14          15          16          17          18
    1   0.0096441  -0.0086877  -0.0277123  -0.0088779   0.0240681   0.0241044
    2  -0.0167457   0.0341186  -0.0172026   0.0080447   0.0142557   0.0194796
    3   0.0145739  -0.0123729  -0.0023691   0.0317977  -0.0233106  -0.1427402
           19          20          21          22          23          24
    1   0.0400142  -0.0438327   0.0654411  -0.0189102   0.0512674  -0.0246771
    2  -0.0089831  -0.0216125  -0.0940302  -0.0046579   0.0118208  -0.0114233
    3   0.0201348  -0.0257309  -0.0615339   0.0210352  -0.0101948  -0.0428924
           25          26
    1   0.0276226  -0.0347150
    2  -0.0396262   0.0160897
    3  -0.0126015  -0.0145270
 Max gradient component =       2.000E-01
 RMS gradient           =       3.973E-02
 Gradient time:  CPU 24.32 s  wall 3.37 s
=======================================================
            AB INITIO MOLECULAR DYNAMICS
=======================================================
 Created directory /scratch/halstead/c/cviquezr/qchem38969/AIMD
AIMD will take 100 BOMD steps Velocity Verlet integration
Time step = 15.00000 a.u. ( = 0.36283 fs)
Total simulation time requested = 36.283 fs
Integral threshold = 10**(-9)
SCF convergence threshold = 10**(-6)
Generating viewable xyz trajectory,
 file (in Angstroms) at AIMD/View.xyz
Choosing nuclear velocities from Maxwell-Boltzmann
Velocities sampled from Maxwell-Boltzmann at T = 298.0 K
sqrt(kT/m) and (vx,vy,vz) for each atom:
  1   2.0771e-04  -5.64e-04  -8.44e-05   1.00e-04 
  2   7.1671e-04   1.20e-03   2.54e-04  -6.16e-04 
  3   7.1671e-04  -1.12e-03  -6.92e-04   2.58e-04 
  4   7.1671e-04  -2.61e-04  -5.73e-04  -1.27e-03 
  5   7.1671e-04  -1.01e-03   1.08e-03   5.46e-04 
  6   1.7991e-04  -1.04e-04   2.90e-05   6.90e-05 
  7   7.1671e-04   6.80e-04   1.27e-03   7.54e-05 
  8   7.1671e-04  -6.16e-04  -7.67e-04  -8.89e-04 
  9   1.7991e-04  -1.42e-04  -2.03e-04   3.94e-05 
 10   7.1671e-04   1.66e-04   4.19e-04  -1.14e-03 
 11   7.1671e-04   1.21e-03   6.73e-04   2.40e-04 
 12   1.7991e-04   3.70e-05   4.14e-05  -7.46e-05 
 13   7.1671e-04   3.88e-04   3.42e-04   9.85e-04 
 14   7.1671e-04  -7.94e-04   5.68e-05  -3.08e-04 
 15   1.7991e-04  -4.79e-05  -2.72e-04   2.20e-04 
 16   7.1671e-04   4.59e-04   3.44e-04  -8.11e-04 
 17   7.1671e-04   2.38e-04   4.98e-04  -3.75e-04 
 18   1.7991e-04  -7.77e-05  -1.07e-04  -9.14e-05 
 19   7.1671e-04   1.72e-03   1.13e-05  -1.44e-04 
 20   7.1671e-04   1.18e-03  -1.59e-03  -7.82e-04 
 21   1.7991e-04  -3.94e-05  -2.20e-04   2.93e-05 
 22   7.1671e-04   1.60e-04  -1.96e-04   1.12e-03 
 23   7.1671e-04  -7.53e-04   8.19e-04  -1.80e-04 
 24   1.7991e-04  -1.26e-06  -4.88e-06  -3.63e-04 
 25   7.1671e-04  -7.34e-04   3.99e-04   5.22e-04 
 26   7.1671e-04   9.92e-04  -9.87e-04  -7.53e-04 
T(nuclear) = 0.03968708 a.u.
v(c.o.m.) = ( -6.7806e-05,  -8.0454e-05,  -3.5777e-05)
T(c.o.m.) = 1.59965e-03 a.u.
kT/2 = 0.000472 a.u.
Tx   = 0.016606 a.u.
Ty   = 0.011627 a.u.
Tz   = 0.011454 a.u.
Mean velocities (a.u.):   8.3539e-05   2.0752e-05  -1.3822e-04
Removing c.o.m. velocity
T(nuclear) = 0.04648691 a.u.
v(c.o.m.) = ( -2.5715e-20,   1.1143e-20,   1.4572e-20)
T(c.o.m.) = 1.29235e-34 a.u.
kT   = 0.000944 a.u. = 0.59 kcal/mol
Tx   = 0.020374 a.u. = 12.79 kcal/mol
Ty   = 0.015299 a.u. = 9.60 kcal/mol
Tz   = 0.010814 a.u. = 6.79 kcal/mol
Initial velocities in m/s
  1     -1.1667e+03     -1.0458e+02      2.5453e+02 
  2      3.4248e+03      1.5099e+03     -9.2316e+02 
  3     -1.6408e+03     -5.5895e+02      9.8989e+02 
  4      2.3379e+02     -2.9940e+02     -2.3585e+03 
  5     -1.3955e+03      3.3149e+03      1.6181e+03 
  6     -1.7628e+02      1.2359e+02      1.7764e+02 
  7      2.2926e+03      3.7417e+03      5.8932e+02 
  8     -5.4418e+02     -7.2336e+02     -1.5204e+03 
  9     -2.6030e+02     -3.8476e+02      1.1290e+02 
 10      1.1666e+03      1.8719e+03     -2.0773e+03 
 11      3.4533e+03      2.4262e+03      9.4901e+02 
 12      1.3162e+02      1.5078e+02     -1.3636e+02 
 13      1.6529e+03      1.7024e+03      2.5789e+03 
 14     -9.3183e+02      1.0788e+03     -2.4923e+02 
 15     -5.4155e+01     -5.3551e+02      5.0882e+02 
 16      1.8077e+03      1.7080e+03     -1.3490e+03 
 17      1.3246e+03      2.0450e+03     -3.9591e+02 
 18     -1.1933e+02     -1.7336e+02     -1.7315e+02 
 19      4.5684e+03      9.7929e+02      1.0845e+02 
 20      3.3896e+03     -2.5329e+03     -1.2853e+03 
 21     -3.5453e+01     -4.2198e+02      9.0794e+01 
 22      1.1547e+03      5.2642e+02      2.8845e+03 
 23     -8.4179e+02      2.7467e+03      2.9713e+01 
 24      4.7939e+01      4.9475e+01     -7.6739e+02 
 25     -8.0204e+02      1.8277e+03      1.5664e+03 
 26      2.9741e+03     -1.2050e+03     -1.2224e+03 
----------------------------------------------------------------------------
       Nuclear coordinates (Angst) and velocities (a.u.)
----------------------------------------------------------------------------
             x        y        z            v_x         v_y        v_z
----------------------------------------------------------------------------
1      C    2.7300   2.7400   2.7100    -5.3331e-04  -4.7804e-05   1.1635e-04
2      H    2.0700   1.8900   2.4100     1.5655e-03   6.9017e-04  -4.2198e-04
3      H    2.2700   3.7200   2.4200    -7.5001e-04  -2.5550e-04   4.5248e-04
4      H    2.8200   2.7100   3.8100     1.0687e-04  -1.3686e-04  -1.0781e-03
5      H    3.7600   2.6300   2.3000    -6.3789e-04   1.5152e-03   7.3962e-04
6      O    4.9000   4.3600   1.3500    -8.0578e-05   5.6493e-05   8.1198e-05
7      H    5.8300   4.4300   0.9900     1.0480e-03   1.7104e-03   2.6938e-04
8      H    4.3000   3.9500   0.6600    -2.4875e-04  -3.3065e-04  -6.9500e-04
9      O    1.2200   0.3200   2.6200    -1.1898e-04  -1.7588e-04   5.1606e-05
10     H    1.0800   0.3400   1.6300     5.3324e-04   8.5567e-04  -9.4953e-04
11     H    1.7600  -0.4800   2.8800     1.5785e-03   1.1090e-03   4.3380e-04
12     O    1.4300   1.2800   0.3700     6.0164e-05   6.8922e-05  -6.2330e-05
13     H    2.2200   0.7700   0.0600     7.5554e-04   7.7817e-04   1.1788e-03
14     H    1.1900   1.9900  -0.2900    -4.2594e-04   4.9314e-04  -1.1392e-04
15     O    4.0000   1.2100   0.2500    -2.4754e-05  -2.4478e-04   2.3258e-04
16     H    3.9000   1.5300   1.1900     8.2630e-04   7.8072e-04  -6.1661e-04
17     H    4.7700   1.6800  -0.1900     6.0548e-04   9.3479e-04  -1.8097e-04
18     O    4.8500   4.6100   3.1000    -5.4546e-05  -7.9244e-05  -7.9147e-05
19     H    5.5100   4.0100   3.5600     2.0882e-03   4.4764e-04   4.9574e-05
20     H    4.0400   4.0800   2.8400     1.5494e-03  -1.1578e-03  -5.8752e-04
21     O    0.4300   2.5200   1.3600    -1.6206e-05  -1.9289e-04   4.1502e-05
22     H   -0.0800   2.8400   2.1600     5.2780e-04   2.4063e-04   1.3185e-03
23     H    1.3300   2.9600   1.3300    -3.8479e-04   1.2555e-03   1.3582e-05
24     O    5.5300   5.5200   5.0000     2.1913e-05   2.2615e-05  -3.5078e-04
25     H    6.1000   4.7300   4.7600    -3.6662e-04   8.3543e-04   7.1602e-04
26     H    4.7600   5.5900   4.3700     1.3595e-03  -5.5079e-04  -5.5877e-04
----------------------------------------------------------------------------
Write nuclear velocities every 1 time steps

TIME STEP #1 (t = 0.000 a.u. = 0.00000 fs)
--------------------------------------
 Instantaneous Temperature = 376.4 K
 ----------------------------------------------------------------
             Standard Nuclear Orientation (Angstroms)
    I     Atom           X                Y                Z
 ----------------------------------------------------------------
    1      C       2.7257808745     2.7396046313     2.7109525576
    2      H       2.0830058757     1.8958235295     2.4070603425
    3      H       2.2645094040     3.7176738279     2.4237873118
    4      H       2.8207883456     2.7089725239     3.8012889606
    5      H       3.7544287334     2.6421025899     2.3060223638
    6      O       4.8993744358     4.3603758791     1.3502362071
    7      H       5.8374232181     4.4435053079     0.9920521060
    8      H       4.2988118981     3.9476525074     0.6540558935
    9      O       1.2190708692     0.3185271004     2.6204266619
   10      H       1.0842161913     0.3467251116     1.6232299631
   11      H       1.7719338980    -0.4704782106     2.8829537413
   12      O       1.4306057849     1.2804173720     0.3693192616
   13      H       2.2256847231     0.7767195133     0.0688849616
   14      H       1.1869005478     1.9928087615    -0.2905033540
   15      O       3.9998600903     1.2080921238     0.2518510050
   16      H       3.9068466046     1.5359364218     1.1840751756
   17      H       4.7740261744     1.6869580593    -0.1906811123
   18      O       4.8495178168     4.6093312186     3.0996632023
   19      H       5.5252789942     4.0138442857     3.5597410458
   20      H       4.0537188705     4.0715101014     2.8361702532
   21      O       0.4297377484     2.5186609234     1.3604550711
   22      H      -0.0751977172     2.8420609492     2.1697842994
   23      H       1.3252843970     2.9695827720     1.3304381681
   24      O       5.5302243236     5.5202028349     4.9973032328
   25      H       6.0961948233     4.7379154108     4.7660918701
   26      H       4.7719159432     5.5851066607     4.3660354411
 ----------------------------------------------------------------
 Nuclear Repulsion Energy =         496.37866304 hartrees
 There are       40 alpha and       40 beta electrons
 Applying Cartesian multipole field
    Component          Value
    ---------          -----
     (2,0,0)        1.00000E-12
     (0,2,0)        2.00000E-12
     (0,0,2)       -3.00000E-11
 Nucleus-field energy     =    -0.0000000458 hartrees
 Guess from superposition of atomic densities
 Warning:  Energy on first SCF cycle will be non-variational
 SAD guess density has 80.000000 electrons
 SCF convergence criterion is 10**(-6)
 Long-range K will be added via erf
 Coulomb attenuation parameter = 0.4 bohr**(-1)
 A restricted Kohn-Sham SCF calculation will be
 performed using Pulay DIIS extrapolation
 Exchange:  wB97 + LR-HF      Correlation:  wB97
 Using SG-2 standard quadrature grid
 SCF converges when DIIS error is below 1.0E-06
 using 20 threads for integral computing
 -------------------------------------------------------
 OpenMP Integral computing Module                
 Release: version 1.0, May 2013, Q-Chem Inc. Pittsburgh 
 -------------------------------------------------------
 using 20 threads for integral computing
 -------------------------------------------------------
 OpenMP Integral computing Module                
 Release: version 1.0, May 2013, Q-Chem Inc. Pittsburgh 
 -------------------------------------------------------
 ---------------------------------------
  Cycle       Energy         DIIS Error
 ---------------------------------------
    1    -575.4617934744      5.63E-02
    2    -574.6208774767      1.27E-02
    3    -574.7400871316      1.15E-02
    4    -575.0106796602      6.83E-04
    5    -575.0117769325      3.74E-04
    6    -575.0120999083      1.15E-04
    7    -575.0121345002      2.62E-05
    8    -575.0121371879      8.96E-06
    9    -575.0121377324      3.29E-06
   10    -575.0121377989      1.37E-06
   11    -575.0121378185      3.97E-07 Convergence criterion met
 ---------------------------------------
 SCF time:  CPU 86.78 s  wall 4.95 s
 SCF   energy in the final basis set = -575.01213782
 Total energy in the final basis set = -575.01213782
 Calculating analytic gradient of the SCF energy
 Gradient of SCF Energy
            1           2           3           4           5           6
    1  -0.0090823  -0.0124014  -0.0136798   0.0022261   0.0133865  -0.0098291
    2  -0.0004667  -0.0046670   0.0083323  -0.0014802  -0.0010141   0.0361313
    3  -0.0080534  -0.0104874  -0.0060095  -0.0014167  -0.0027457   0.2039955
            7           8           9          10          11          12
    1   0.0334761  -0.0270169  -0.0067690  -0.0003281   0.0183938  -0.0608243
    2   0.0032397  -0.0103732   0.0355851   0.0027680  -0.0209902   0.0610328
    3   0.0011496   0.0108553  -0.0042984  -0.0285611   0.0157212   0.0910714
           13          14          15          16          17          18
    1   0.0085750  -0.0097125  -0.0341850  -0.0075775   0.0289893   0.0151936
    2  -0.0159799   0.0357093  -0.0201262   0.0071337   0.0177939   0.0207373
    3   0.0160461  -0.0135064   0.0037794   0.0268692  -0.0249988  -0.1463139
           19          20          21          22          23          24
    1   0.0440969  -0.0396459   0.0665736  -0.0199029   0.0511821  -0.0252633
    2  -0.0117303  -0.0196046  -0.0970089  -0.0026277   0.0130354  -0.0169108
    3   0.0231128  -0.0251058  -0.0664421   0.0249549  -0.0093787  -0.0482408
           25          26
    1   0.0228145  -0.0286896
    2  -0.0331314   0.0146122
    3  -0.0108245  -0.0111720
 Max gradient component =       2.040E-01
 RMS gradient           =       4.033E-02
 Gradient time:  CPU 22.11 s  wall 1.19 s
 Time for this dynamics step: 112.1 s (CPU) 6.3 s (wall)

TIME STEP #2 (t = 15.000 a.u. = 0.36283 fs)
--------------------------------------
 Instantaneous Temperature = 374.6 K
 ----------------------------------------------------------------
             Standard Nuclear Orientation (Angstroms)
    I     Atom           X                Y                Z
 ----------------------------------------------------------------
    1      C       2.7216111845     2.7392118027     2.7119489501
    2      H       2.0968154787     1.9019495207     2.4048003643
    3      H       2.2599053822     3.7148076478     2.4279640922
    4      H       2.8214324189     2.7080409786     3.7926697366
    5      H       3.7479898972     2.6542708996     2.3122226727
    6      O       4.8987890095     4.3606042128     1.3496393811
    7      H       5.8426768779     4.4568006518     0.9940297089
    8      H       4.2993747396     3.9459772899     0.6474082627
    9      O       1.2181693803     0.3169088859     2.6208708767
   10      H       1.0884536495     0.3532708298     1.6183109497
   11      H       1.7826757068    -0.4595960654     2.8848886022
   12      O       1.4314599508     1.2805855111     0.3682666255
   13      H       2.2308137088     0.7844746725     0.0767299902
   14      H       1.1844305532     1.9933032331    -0.2901313712
   15      O       3.9998597778     1.2062664346     0.2536865766
   16      H       3.9141842978     1.5414105134     1.1764089834
   17      H       4.7761735782     1.6927629113    -0.1897420717
   18      O       4.8489735893     4.6085777547     3.0999238899
   19      H       5.5377001060     4.0184488023     3.5579841706
   20      H       4.0700071594     4.0642907570     2.8339675936
   21      O       0.4292036377     2.5177179911     1.3611814644
   22      H      -0.0691055449     2.8442921990     2.1779512958
   23      H       1.3172517260     2.9783207280     1.3314841632
   24      O       5.5305518123     5.5204747268     4.9948034610
   25      H       6.0909110559     4.7479780402     4.7728852695
   26      H       4.7856912368     5.5792663186     4.3627949266
 ----------------------------------------------------------------
 Nuclear Repulsion Energy =         496.55711724 hartrees
 There are       40 alpha and       40 beta electrons
 Applying Cartesian multipole field
    Component          Value
    ---------          -----
     (2,0,0)        1.00000E-12
     (0,2,0)        2.00000E-12
     (0,0,2)       -3.00000E-11
 Nucleus-field energy     =    -0.0000000458 hartrees
 Guess from superposition of atomic densities
 Warning:  Energy on first SCF cycle will be non-variational
 SAD guess density has 80.000000 electrons
 SCF convergence criterion is 10**(-6)
 Long-range K will be added via erf
 Coulomb attenuation parameter = 0.4 bohr**(-1)
 A restricted Kohn-Sham SCF calculation will be
 performed using Pulay DIIS extrapolation
 Exchange:  wB97 + LR-HF      Correlation:  wB97
 Using SG-2 standard quadrature grid
 SCF converges when DIIS error is below 1.0E-06
 using 20 threads for integral computing
 -------------------------------------------------------
 OpenMP Integral computing Module                
 Release: version 1.0, May 2013, Q-Chem Inc. Pittsburgh 
 -------------------------------------------------------
 using 20 threads for integral computing
 -------------------------------------------------------
 OpenMP Integral computing Module                
 Release: version 1.0, May 2013, Q-Chem Inc. Pittsburgh 
 -------------------------------------------------------
 ---------------------------------------
  Cycle       Energy         DIIS Error
 ---------------------------------------
    1    -575.4949539235      5.66E-02
    2    -574.6228342236      1.27E-02
    3    -574.7429424948      1.14E-02
    4    -575.0123642830      6.95E-04
    5    -575.0134823107      3.81E-04
    6    -575.0138152283      1.13E-04
    7    -575.0138487483      2.63E-05
    8    -575.0138513744      8.84E-06
    9    -575.0138518915      3.32E-06
   10    -575.0138519563      1.31E-06
   11    -575.0138519764      3.88E-07 Convergence criterion met
 ---------------------------------------
 SCF time:  CPU 88.39 s  wall 5.21 s
 SCF   energy in the final basis set = -575.01385198
 Total energy in the final basis set = -575.01385198
 Calculating analytic gradient of the SCF energy
 Gradient of SCF Energy
            1           2           3           4           5           6
    1  -0.0132335  -0.0063086  -0.0127597   0.0024987   0.0105781  -0.0117342
    2  -0.0073666   0.0022014   0.0070910  -0.0011041   0.0002574   0.0363544
    3  -0.0058411  -0.0078294  -0.0057769  -0.0078697  -0.0006628   0.2062115
            7           8           9          10          11          12
    1   0.0375666  -0.0289846  -0.0053977  -0.0009357   0.0175061  -0.0584778
    2   0.0041903  -0.0118114   0.0324832   0.0033883  -0.0186709   0.0591669
    3   0.0001239   0.0089414  -0.0010943  -0.0320672   0.0158041   0.0896148
           13          14          15          16          17          18
    1   0.0068616  -0.0102049  -0.0390813  -0.0060403   0.0320990   0.0058297
    2  -0.0147083   0.0358628  -0.0215561   0.0056663   0.0203633   0.0195261
    3   0.0175252  -0.0135300   0.0103411   0.0203363  -0.0255156  -0.1489377
           19          20          21          22          23          24
    1   0.0463756  -0.0333609   0.0686160  -0.0198416   0.0487844  -0.0253912
    2  -0.0132186  -0.0162069  -0.0982915  -0.0010040   0.0132777  -0.0243847
    3   0.0248458  -0.0234306  -0.0699590   0.0274668  -0.0084017  -0.0550757
           25          26
    1   0.0162100  -0.0211738
    2  -0.0242480   0.0127419
    3  -0.0084862  -0.0067329
 Max gradient component =       2.062E-01
 RMS gradient           =       4.058E-02
 Gradient time:  CPU 21.96 s  wall 1.15 s
 Time for this dynamics step: 112.8 s (CPU) 6.5 s (wall)

TIME STEP #3 (t = 30.000 a.u. = 0.72567 fs)
--------------------------------------
 Instantaneous Temperature = 388.3 K
 ----------------------------------------------------------------
             Standard Nuclear Orientation (Angstroms)
    I     Atom           X                Y                Z
 ----------------------------------------------------------------
    1      C       2.7175135250     2.7388590706     2.7129771359
    2      H       2.1110339342     1.9079328392     2.4030478054
    3      H       2.2561283037     3.7114819063     2.4325152678
    4      H       2.8219145561     2.7071809863     3.7845605411
    5      H       3.7408655034     2.6664225291     2.3184659376
    6      O       4.8982515009     4.3606840901     1.3482004728
    7      H       5.8454958760     4.4698244259     0.9959992825
    8      H       4.3018160456     3.9450675560     0.6401811497
    9      O       1.2172899334     0.3151580235     2.6213195602
   10      H       1.0927517514     0.3595969528     1.6154701830
   11      H       1.7922829602    -0.4475038741     2.8857992153
   12      O       1.4325529158     1.2805120371     0.3668480394
   13      H       2.2354979969     0.7931830652     0.0834392232
   14      H       1.1826219323     1.9914734648    -0.2888825229
   15      O       4.0000190572     1.2045287715     0.2554799197
   16      H       3.9219134582     1.5465173788     1.1674248103
   17      H       4.7762406760     1.6972480337    -0.1871493885
   18      O       4.8484055559     4.6077445542     3.1007927774
   19      H       5.5471156564     4.0239100029     3.5546170610
   20      H       4.0884575376     4.0581217704     2.8332834542
   21      O       0.4283893275     2.5171764407     1.3621935413
   22      H      -0.0617274529     2.8465885177     2.1843381935
   23      H       1.3060573777     2.9861981696     1.3330746662
   24      O       5.5309829882     5.5208461957     4.9925285955
   25      H       6.0845767310     4.7596121641     4.7802286539
   26      H       4.8008387874     5.5726001867     4.3599907675
 ----------------------------------------------------------------
 Nuclear Repulsion Energy =         496.82792406 hartrees
 There are       40 alpha and       40 beta electrons
 Applying Cartesian multipole field
    Component          Value
    ---------          -----
     (2,0,0)        1.00000E-12
     (0,2,0)        2.00000E-12
     (0,0,2)       -3.00000E-11
 Nucleus-field energy     =    -0.0000000458 hartrees
 Guess from superposition of atomic densities
 Warning:  Energy on first SCF cycle will be non-variational
 SAD guess density has 80.000000 electrons
 SCF convergence criterion is 10**(-6)
 Long-range K will be added via erf
 Coulomb attenuation parameter = 0.4 bohr**(-1)
 A restricted Kohn-Sham SCF calculation will be
 performed using Pulay DIIS extrapolation
 Exchange:  wB97 + LR-HF      Correlation:  wB97
 Using SG-2 standard quadrature grid
 SCF converges when DIIS error is below 1.0E-06
 using 20 threads for integral computing
 -------------------------------------------------------
 OpenMP Integral computing Module                
 Release: version 1.0, May 2013, Q-Chem Inc. Pittsburgh 
 -------------------------------------------------------
 using 20 threads for integral computing
 -------------------------------------------------------
 OpenMP Integral computing Module                
 Release: version 1.0, May 2013, Q-Chem Inc. Pittsburgh 
 -------------------------------------------------------
 ---------------------------------------
  Cycle       Energy         DIIS Error
 ---------------------------------------
    1    -575.5478720213      5.71E-02
    2    -574.6265132281      1.27E-02
    3    -574.7484753483      1.14E-02
    4    -575.0156292683      7.02E-04
    5    -575.0167594073      3.82E-04
    6    -575.0170934550      1.10E-04
    7    -575.0171254516      2.61E-05
    8    -575.0171279625      8.60E-06
    9    -575.0171284413      3.28E-06
   10    -575.0171285030      1.25E-06
   11    -575.0171285204      3.70E-07 Convergence criterion met
 ---------------------------------------
 SCF time:  CPU 90.16 s  wall 5.13 s
 SCF   energy in the final basis set = -575.01712852
 Total energy in the final basis set = -575.01712852
 Calculating analytic gradient of the SCF energy
 Gradient of SCF Energy
            1           2           3           4           5           6
    1  -0.0175048   0.0001792  -0.0115197   0.0026822   0.0073148  -0.0126014
    2  -0.0145993   0.0097179   0.0054891  -0.0006931   0.0014415   0.0362593
    3  -0.0042254  -0.0047496  -0.0053422  -0.0142939   0.0015205   0.2066588
            7           8           9          10          11          12
    1   0.0399145  -0.0301790  -0.0033265  -0.0013359   0.0156928  -0.0558424
    2   0.0049810  -0.0128540   0.0284519   0.0039231  -0.0153156   0.0579955
    3  -0.0004419   0.0074644   0.0012468  -0.0341596   0.0153650   0.0867570
           13          14          15          16          17          18
    1   0.0045658  -0.0101490  -0.0424083  -0.0043092   0.0334514  -0.0038580
    2  -0.0129989   0.0345788  -0.0215036   0.0036621   0.0219625   0.0158289
    3   0.0189689  -0.0124402   0.0171457   0.0124039  -0.0248876  -0.1506887
           19          20          21          22          23          24
    1   0.0468183  -0.0250448   0.0716240  -0.0187640   0.0440568  -0.0248453
    2  -0.0135505  -0.0113236  -0.0978144   0.0002102   0.0124814  -0.0339356
    3   0.0253649  -0.0206712  -0.0720687   0.0285467  -0.0072602  -0.0632773
           25          26
    1   0.0077986  -0.0124100
    2  -0.0129738   0.0105789
    3  -0.0056479  -0.0012884
 Max gradient component =       2.067E-01
 RMS gradient           =       4.058E-02
 Gradient time:  CPU 24.32 s  wall 1.27 s
 Time for this dynamics step: 117.0 s (CPU) 6.5 s (wall)

TIME STEP #4 (t = 45.000 a.u. = 1.08850 fs)
--------------------------------------
 Instantaneous Temperature = 414.5 K
 ----------------------------------------------------------------
             Standard Nuclear Orientation (Angstroms)
    I     Atom           X                Y                Z
 ----------------------------------------------------------------
    1      C       2.7135111448     2.7385858030     2.7140283207
    2      H       2.1252407770     1.9132863504     2.4016030631
    3      H       2.2530978091     3.7078004229     2.4374126669
    4      H       2.8222228636     2.7063659101     3.7773777194
    5      H       3.7332670408     2.6784807361     2.3246106573
    6      O       4.8977654511     4.3606158992     1.3459176553
    7      H       5.8457280519     4.4825253855     0.9979974921
    8      H       4.3062132292     3.9449908756     0.6324702766
    9      O       1.2164240707     0.3132909754     2.6217631521
   10      H       1.0971364344     0.3656688199     1.6148432736
   11      H       1.8008731783    -0.4344190906     2.8857140361
   12      O       1.4338739181     1.2802017334     0.3650751735
   13      H       2.2398863786     0.8027339036     0.0889190959
   14      H       1.1814710595     1.9874026715    -0.2868274389
   15      O       4.0003515147     1.2028789201     0.2572032466
   16      H       3.9299218915     1.5513869081     1.1576367508
   17      H       4.7741398195     1.7003097877    -0.1829437611
   18      O       4.8478532771     4.6068467152     3.1022770154
   19      H       5.5534969530     4.0302494029     3.5496060712
   20      H       4.1085310454     4.0526866572     2.8339390005
   21      O       0.4272825345     2.5170343238     1.3634999169
   22      H      -0.0531332854     2.8488712117     2.1888750024
   23      H       1.2920077468     2.9932667002     1.3351356952
   24      O       5.5315156222     5.5213562434     4.9905121285
   25      H       6.0777369846     4.7720871070     4.7879380747
   26      H       4.8167906191     5.5652484431     4.3572701102
 ----------------------------------------------------------------
 Nuclear Repulsion Energy =         497.17506290 hartrees
 There are       40 alpha and       40 beta electrons
 Applying Cartesian multipole field
    Component          Value
    ---------          -----
     (2,0,0)        1.00000E-12
     (0,2,0)        2.00000E-12
     (0,0,2)       -3.00000E-11
 Nucleus-field energy     =    -0.0000000458 hartrees
 Guess from superposition of atomic densities
 Warning:  Energy on first SCF cycle will be non-variational
 SAD guess density has 80.000000 electrons
 SCF convergence criterion is 10**(-6)
 Long-range K will be added via erf
 Coulomb attenuation parameter = 0.4 bohr**(-1)
 A restricted Kohn-Sham SCF calculation will be
 performed using Pulay DIIS extrapolation
 Exchange:  wB97 + LR-HF      Correlation:  wB97
 Using SG-2 standard quadrature grid
 SCF converges when DIIS error is below 1.0E-06
 using 20 threads for integral computing
 -------------------------------------------------------
 OpenMP Integral computing Module                
 Release: version 1.0, May 2013, Q-Chem Inc. Pittsburgh 
 -------------------------------------------------------
 using 20 threads for integral computing
 -------------------------------------------------------
 OpenMP Integral computing Module                
 Release: version 1.0, May 2013, Q-Chem Inc. Pittsburgh 
 -------------------------------------------------------
 ---------------------------------------
  Cycle       Energy         DIIS Error
 ---------------------------------------
    1    -575.6176673214      5.77E-02
    2    -574.6312709774      1.27E-02
    3    -574.7559527155      1.13E-02
    4    -575.0199040657      7.04E-04
    5    -575.0210358749      3.79E-04
    6    -575.0213628484      1.07E-04
    7    -575.0213930569      2.56E-05
    8    -575.0213954123      8.28E-06
    9    -575.0213958442      3.17E-06
   10    -575.0213958983      1.17E-06
   11    -575.0213959183      3.48E-07 Convergence criterion met
 ---------------------------------------
 SCF time:  CPU 90.21 s  wall 5.15 s
 SCF   energy in the final basis set = -575.02139592
 Total energy in the final basis set = -575.02139592
 Calculating analytic gradient of the SCF energy
 Gradient of SCF Energy
            1           2           3           4           5           6
    1  -0.0216832   0.0067304  -0.0099676   0.0028025   0.0036917  -0.0124404
    2  -0.0217541   0.0174976   0.0035475  -0.0002590   0.0024916   0.0359077
    3  -0.0033832  -0.0014110  -0.0047147  -0.0203135   0.0037414   0.2053502
            7           8           9          10          11          12
    1   0.0405316  -0.0306103  -0.0005283  -0.0015443   0.0129537  -0.0530388
    2   0.0055513  -0.0134904   0.0236367   0.0043512  -0.0110404   0.0576041
    3  -0.0005648   0.0064509   0.0026896  -0.0348131   0.0144307   0.0825391
           13          14          15          16          17          18
    1   0.0017847  -0.0095227  -0.0441379  -0.0024449   0.0330784  -0.0135925
    2  -0.0109402   0.0318585  -0.0200285   0.0012099   0.0225748   0.0096651
    3   0.0203295  -0.0102324   0.0238775   0.0034240  -0.0231370  -0.1515426
           19          20          21          22          23          24
    1   0.0453679  -0.0148661   0.0756524  -0.0167053   0.0369918  -0.0234419
    2  -0.0127731  -0.0049428  -0.0954896   0.0010058   0.0105696  -0.0454160
    3   0.0246940  -0.0168404  -0.0727623   0.0281662  -0.0059222  -0.0725109
           25          26
    1  -0.0022606  -0.0028004
    2   0.0004155   0.0082471
    3  -0.0024906   0.0049456
 Max gradient component =       2.054E-01
 RMS gradient           =       4.047E-02
 Gradient time:  CPU 24.06 s  wall 1.33 s
 Time for this dynamics step: 116.5 s (CPU) 6.6 s (wall)

TIME STEP #5 (t = 60.000 a.u. = 1.45133 fs)
--------------------------------------
 Instantaneous Temperature = 448.7 K
 ----------------------------------------------------------------
             Standard Nuclear Orientation (Angstroms)
    I     Atom           X                Y                Z
 ----------------------------------------------------------------
    1      C       2.7096267872     2.7384309442     2.7150979205
    2      H       2.1390114261     1.9175058577     2.4002497686
    3      H       2.2507133053     3.7038890264     2.4426156206
    4      H       2.8223495412     2.7055676187     3.7715114009
    5      H       3.7254293219     2.6903774633     2.3305129018
    6      O       4.8973302026     4.3604010759     1.3427962725
    7      H       5.8433334093     4.4948665669     1.0000323086
    8      H       4.3125942387     3.9457884950     0.6243413282
    9      O       1.2155603653     0.3113274049     2.6221957608
   10      H       1.1016212023     0.3714586899     1.6164725740
   11      H       1.8086238780    -0.4206187878     2.8846936148
   12      O       1.4354115090     1.2796561985     0.3629652519
   13      H       2.2441590964     0.8129937696     0.0930814309
   14      H       1.1809373442     1.9812671531    -0.2841092042
   15      O       4.0008642129     1.2013108567     0.2588290677
   16      H       3.9380887785     1.5561780244     1.1476267846
   17      H       4.7698951816     1.7019084886    -0.1772386445
   18      O       4.8473565041     4.6059094079     3.1043800908
   19      H       5.5569379960     4.0374166156     3.5429946817
   20      H       4.1295680155     4.0475718856     2.8356859574
   21      O       0.4258668084     2.5172821469     1.3651034236
   22      H      -0.0434564614     2.8510887204     2.1915863842
   23      H       1.2755607117     2.9996502220     1.3375805397
   24      O       5.5321439832     5.5220517513     4.9887917660
   25      H       6.0710437475     4.7845351216     4.7958089103
   26      H       4.8329239392     5.5573622129     4.3542289307
 ----------------------------------------------------------------
 Nuclear Repulsion Energy =         497.57476269 hartrees
 There are       40 alpha and       40 beta electrons
 Applying Cartesian multipole field
    Component          Value
    ---------          -----
     (2,0,0)        1.00000E-12
     (0,2,0)        2.00000E-12
     (0,0,2)       -3.00000E-11
 Nucleus-field energy     =    -0.0000000458 hartrees
 Guess from superposition of atomic densities
 Warning:  Energy on first SCF cycle will be non-variational
 SAD guess density has 80.000000 electrons
 SCF convergence criterion is 10**(-6)
 Long-range K will be added via erf
 Coulomb attenuation parameter = 0.4 bohr**(-1)
 A restricted Kohn-Sham SCF calculation will be
 performed using Pulay DIIS extrapolation
 Exchange:  wB97 + LR-HF      Correlation:  wB97
 Using SG-2 standard quadrature grid
 SCF converges when DIIS error is below 1.0E-06
 using 20 threads for integral computing
 -------------------------------------------------------
 OpenMP Integral computing Module                
 Release: version 1.0, May 2013, Q-Chem Inc. Pittsburgh 
 -------------------------------------------------------
 using 20 threads for integral computing
 -------------------------------------------------------
 OpenMP Integral computing Module                
 Release: version 1.0, May 2013, Q-Chem Inc. Pittsburgh 
 -------------------------------------------------------
 ---------------------------------------
  Cycle       Energy         DIIS Error
 ---------------------------------------
    1    -575.7003178539      5.85E-02
    2    -574.6364465241      1.28E-02
    3    -574.7645514273      1.13E-02
    4    -575.0245933069      7.01E-04
    5    -575.0257154941      3.71E-04
    6    -575.0260286800      1.04E-04
    7    -575.0260569878      2.50E-05
    8    -575.0260591603      7.88E-06
    9    -575.0260595471      3.01E-06
   10    -575.0260595923      1.09E-06
   11    -575.0260596066      3.21E-07 Convergence criterion met
 ---------------------------------------
 SCF time:  CPU 87.34 s  wall 4.80 s
 SCF   energy in the final basis set = -575.02605961
 Total energy in the final basis set = -575.02605961
 Calculating analytic gradient of the SCF energy
 Gradient of SCF Energy
            1           2           3           4           5           6
    1  -0.0255146   0.0129127  -0.0081253   0.0028938  -0.0001589  -0.0112497
    2  -0.0282933   0.0250330   0.0012990   0.0001818   0.0033770   0.0353600
    3  -0.0034307   0.0019342  -0.0039138  -0.0255323   0.0059211   0.2022771
            7           8           9          10          11          12
    1   0.0394095  -0.0302837   0.0029701  -0.0015725   0.0093325  -0.0502361
    2   0.0058357  -0.0137097   0.0182166   0.0046518  -0.0060021   0.0581045
    3  -0.0002542   0.0059441   0.0031710  -0.0339994   0.0130520   0.0770274
           13          14          15          16          17          18
    1  -0.0013425  -0.0083030  -0.0441992  -0.0005173   0.0309752  -0.0228262
    2  -0.0086407   0.0277183  -0.0172429  -0.0015079   0.0221564   0.0011781
    3   0.0215573  -0.0069114   0.0300531  -0.0060864  -0.0202724  -0.1513452
           19          20          21          22          23          24
    1   0.0419227  -0.0032168   0.0806543  -0.0136961   0.0277295  -0.0211533
    2  -0.0108854   0.0027650  -0.0912268   0.0013647   0.0074384  -0.0582222
    3   0.0228265  -0.0120436  -0.0720169   0.0262860  -0.0043462  -0.0821548
           25          26
    1  -0.0134604   0.0070555
    2   0.0151654   0.0058853
    3   0.0006959   0.0115616
 Max gradient component =       2.023E-01
 RMS gradient           =       4.038E-02
 Gradient time:  CPU 22.56 s  wall 1.42 s
 Time for this dynamics step: 114.5 s (CPU) 6.5 s (wall)

TIME STEP #6 (t = 75.000 a.u. = 1.81416 fs)
--------------------------------------
 Instantaneous Temperature = 486.2 K
 ----------------------------------------------------------------
             Standard Nuclear Orientation (Angstroms)
    I     Atom           X                Y                Z
 ----------------------------------------------------------------
    1      C       2.7058813066     2.7384300874     2.7161861938
    2      H       2.1519452140     1.9201029960     2.3987711221
    3      H       2.2488553971     3.6998934437     2.4480722238
    4      H       2.8222886745     2.7047575458     3.7672998100
    5      H       3.7176019025     2.7020553327     2.3360314068
    6      O       4.8969408934     4.3600418570     1.3388488734
    7      H       5.8383846738     4.5068295427     1.0020836012
    8      H       4.3209379101     3.9474746274     0.6158271494
    9      O       1.2146845311     0.3092894451     2.6226154201
   10      H       1.1062078855     0.3769470824     1.6203053470
   11      H       1.8157697495    -0.4064294935     2.8828273038
   12      O       1.4371542434     1.2788733889     0.3605407822
   13      H       2.2485188175     0.8238136349     0.0958466548
   14      H       1.1809417387     1.9733352374    -0.2809430460
   15      O       4.0015574023     1.1998132061     0.2603321643
   16      H       3.9462891925     1.5610668677     1.1380112716
   17      H       4.7636430671     1.7020712532    -0.1702196888
   18      O       4.8469529442     4.6049672896     3.1071011974
   19      H       5.5576620662     4.0452893000     3.5349039245
   20      H       4.1508134667     4.0422779142     2.8382134491
   21      O       0.4241217234     2.5179025025     1.3670010175
   22      H      -0.0328920039     2.8532177852     2.1925941931
   23      H       1.2573165520     3.0055516670     1.3403070582
   24      O       5.5328587254     5.5229850147     4.9874068897
   25      H       6.0652228680     4.7960002768     4.8036346449
   26      H       4.8485999968     5.5490945602     4.3504384543
 ----------------------------------------------------------------
 Nuclear Repulsion Energy =         497.99576652 hartrees
 There are       40 alpha and       40 beta electrons
 Applying Cartesian multipole field
    Component          Value
    ---------          -----
     (2,0,0)        1.00000E-12
     (0,2,0)        2.00000E-12
     (0,0,2)       -3.00000E-11
 Nucleus-field energy     =    -0.0000000458 hartrees
 Guess from superposition of atomic densities
 Warning:  Energy on first SCF cycle will be non-variational
 SAD guess density has 80.000000 electrons
 SCF convergence criterion is 10**(-6)
 Long-range K will be added via erf
 Coulomb attenuation parameter = 0.4 bohr**(-1)
 A restricted Kohn-Sham SCF calculation will be
 performed using Pulay DIIS extrapolation
 Exchange:  wB97 + LR-HF      Correlation:  wB97
 Using SG-2 standard quadrature grid
 SCF converges when DIIS error is below 1.0E-06
 using 20 threads for integral computing
 -------------------------------------------------------
 OpenMP Integral computing Module                
 Release: version 1.0, May 2013, Q-Chem Inc. Pittsburgh 
 -------------------------------------------------------
 using 20 threads for integral computing
 -------------------------------------------------------
 OpenMP Integral computing Module                
 Release: version 1.0, May 2013, Q-Chem Inc. Pittsburgh 
 -------------------------------------------------------
 ---------------------------------------
  Cycle       Energy         DIIS Error
 ---------------------------------------
    1    -575.7908562970      5.94E-02
    2    -574.6415821077      1.28E-02
    3    -574.7735824506      1.12E-02
    4    -575.0292733047      6.93E-04
    5    -575.0303746085      3.60E-04
    6    -575.0306690533      1.02E-04
    7    -575.0306954779      2.43E-05
    8    -575.0306974613      7.45E-06
    9    -575.0306978011      2.82E-06
   10    -575.0306978391      1.02E-06
   11    -575.0306978525      2.93E-07 Convergence criterion met
 ---------------------------------------
 SCF time:  CPU 87.26 s  wall 4.81 s
 SCF   energy in the final basis set = -575.03069785
 Total energy in the final basis set = -575.03069785
 Calculating analytic gradient of the SCF energy
 Gradient of SCF Energy
            1           2           3           4           5           6
    1  -0.0286915   0.0182849  -0.0060360   0.0029946  -0.0040650  -0.0090203
    2  -0.0335728   0.0316551  -0.0012063   0.0006115   0.0040923   0.0346738
    3  -0.0043840   0.0050171  -0.0029707  -0.0295753   0.0079811   0.1974162
            7           8           9          10          11          12
    1   0.0365178  -0.0291991   0.0070720  -0.0014303   0.0049458  -0.0476395
    2   0.0057614  -0.0134966   0.0124547   0.0048045  -0.0004298   0.0595980
    3   0.0004872   0.0060043   0.0025923  -0.0316846   0.0113046   0.0703319
           13          14          15          16          17          18
    1  -0.0046301  -0.0064767  -0.0424947   0.0014018   0.0271079  -0.0306188
    2  -0.0062300   0.0222207  -0.0133193  -0.0042316   0.0206395  -0.0092412
    3   0.0226015  -0.0025173   0.0350167  -0.0154520  -0.0162945  -0.1497979
           19          20          21          22          23          24
    1   0.0363449   0.0091474   0.0864566  -0.0097685   0.0164723  -0.0182043
    2  -0.0078502   0.0113367  -0.0850146   0.0012589   0.0030760  -0.0711941
    3   0.0197345  -0.0065320  -0.0697765   0.0228624  -0.0025631  -0.0912741
           25          26
    1  -0.0248079   0.0163369
    2   0.0299502   0.0036532
    3   0.0035515   0.0179208
 Max gradient component =       1.974E-01
 RMS gradient           =       4.036E-02
 Gradient time:  CPU 20.61 s  wall 1.05 s
 Time for this dynamics step: 110.2 s (CPU) 6.0 s (wall)

TIME STEP #7 (t = 90.000 a.u. = 2.17700 fs)
--------------------------------------
 Instantaneous Temperature = 523.7 K
 ----------------------------------------------------------------
             Standard Nuclear Orientation (Angstroms)
    I     Atom           X                Y                Z
 ----------------------------------------------------------------
    1      C       2.7022919954     2.7386119691     2.7172983298
    2      H       2.1636939762     1.9206485965     2.3969673194
    3      H       2.2473886753     3.6959760417     2.4537213587
    4      H       2.8220337284     2.7039078407     3.7650049720
    5      H       3.7100379326     2.7134679834     2.3410326623
    6      O       4.8965884193     4.3595410446     1.3340953081
    7      H       5.8310692538     4.5184191285     1.0041033162
    8      H       4.3311739508     3.9500354636     0.6069238400
    9      O       1.2137798177     0.3072006254     2.6230244938
   10      H       1.1108872685     0.3821241018     1.6261915699
   11      H       1.8225950857    -0.3922123465     2.8802283504
   12      O       1.4390915177     1.2778472055     0.3578291061
   13      H       2.2531786145     0.8350372599     0.0971470917
   14      H       1.1813658851     1.9639632196    -0.2776137443
   15      O       4.0024241227     1.1983699461     0.2616922671
   16      H       3.9543987554     1.5662299586     1.1293971904
   17      H       4.7556341116     1.7008963906    -0.1621446979
   18      O       4.8466744186     4.6040629085     3.1104340168
   19      H       5.5560306567     4.0536707460     3.5255341940
   20      H       4.1714660800     4.0362492212     2.8411642762
   21      O       0.4220235854     2.5188700228     1.3691835495
   22      H      -0.0216944579     2.8552652618     2.1921203069
   23      H       1.2380048387     3.0112537577     1.3431996905
   24      O       5.5336478066     5.5242090052     4.9863947392
   25      H       6.0610097676     4.8055243828     4.8112302114
   26      H       4.8632172741     5.5405901486     4.3454865447
 ----------------------------------------------------------------
 Nuclear Repulsion Energy =         498.40046915 hartrees
 There are       40 alpha and       40 beta electrons
 Applying Cartesian multipole field
    Component          Value
    ---------          -----
     (2,0,0)        1.00000E-12
     (0,2,0)        2.00000E-12
     (0,0,2)       -3.00000E-11
 Nucleus-field energy     =    -0.0000000458 hartrees
 Guess from superposition of atomic densities
 Warning:  Energy on first SCF cycle will be non-variational
 SAD guess density has 80.000000 electrons
 SCF convergence criterion is 10**(-6)
 Long-range K will be added via erf
 Coulomb attenuation parameter = 0.4 bohr**(-1)
 A restricted Kohn-Sham SCF calculation will be
 performed using Pulay DIIS extrapolation
 Exchange:  wB97 + LR-HF      Correlation:  wB97
 Using SG-2 standard quadrature grid
 SCF converges when DIIS error is below 1.0E-06
 using 20 threads for integral computing
 -------------------------------------------------------
 OpenMP Integral computing Module                
 Release: version 1.0, May 2013, Q-Chem Inc. Pittsburgh 
 -------------------------------------------------------
 using 20 threads for integral computing
 -------------------------------------------------------
 OpenMP Integral computing Module                
 Release: version 1.0, May 2013, Q-Chem Inc. Pittsburgh 
 -------------------------------------------------------
 ---------------------------------------
  Cycle       Energy         DIIS Error
 ---------------------------------------
    1    -575.8836528494      6.03E-02
    2    -574.6465581078      1.28E-02
    3    -574.7826569865      1.11E-02
    4    -575.0338203771      6.81E-04
    5    -575.0348906973      3.46E-04
    6    -575.0351630310      9.88E-05
    7    -575.0351876829      2.34E-05
    8    -575.0351894769      7.01E-06
    9    -575.0351897778      2.60E-06
   10    -575.0351898037      9.46E-07 Convergence criterion met
 ---------------------------------------
 SCF time:  CPU 80.00 s  wall 4.45 s
 SCF   energy in the final basis set = -575.03518980
 Total energy in the final basis set = -575.03518980
 Calculating analytic gradient of the SCF energy
 Gradient of SCF Energy
            1           2           3           4           5           6
    1  -0.0309363   0.0224033  -0.0037559   0.0031398  -0.0078284  -0.0057419
    2  -0.0369129   0.0366412  -0.0038946   0.0010101   0.0046491   0.0339038
    3  -0.0061640   0.0075251  -0.0019198  -0.0321347   0.0098439   0.1907393
            7           8           9          10          11          12
    1   0.0318185  -0.0273568   0.0115750  -0.0011251   0.0000114  -0.0454672
    2   0.0052514  -0.0128340   0.0067081   0.0047851   0.0053489   0.0621107
    3   0.0016573   0.0067014   0.0008158  -0.0278345   0.0093027   0.0626399
           13          14          15          16          17          18
    1  -0.0078496  -0.0040607  -0.0389274   0.0032398   0.0214444  -0.0357320
    2  -0.0038580   0.0155218  -0.0085008  -0.0066339   0.0179502  -0.0208561
    3   0.0234074   0.0028332   0.0379804  -0.0238606  -0.0112167  -0.1464116
           19          20          21          22          23          24
    1   0.0285093   0.0211633   0.0926920  -0.0049798   0.0036653  -0.0151000
    2  -0.0036116   0.0199598  -0.0769845   0.0006589  -0.0023867  -0.0826516
    3   0.0154194  -0.0007786  -0.0660024   0.0178732  -0.0005778  -0.0987050
           25          26
    1  -0.0349053   0.0241043
    2   0.0429495   0.0016760
    3   0.0056655   0.0232013
 Max gradient component =       1.907E-01
 RMS gradient           =       4.032E-02
 Gradient time:  CPU 24.46 s  wall 1.28 s
 Time for this dynamics step: 106.8 s (CPU) 5.8 s (wall)

TIME STEP #8 (t = 105.000 a.u. = 2.53983 fs)
--------------------------------------
 Instantaneous Temperature = 560.2 K
 ----------------------------------------------------------------
             Standard Nuclear Orientation (Angstroms)
    I     Atom           X                Y                Z
 ----------------------------------------------------------------
    1      C       2.6988710718     2.7389947698     2.7184440170
    2      H       2.1739908025     1.9188195100     2.3946758224
    3      H       2.2461653718     3.6923110435     2.4594949167
    4      H       2.8215752923     2.7029926728     3.7647927590
    5      H       3.7029813172     2.7245793322     2.3453959400
    6      O       4.8962593929     4.3589017829     1.3285628425
    7      H       5.8216917011     4.5296683753     1.0060156201
    8      H       4.3431829627     3.9534280579     0.5975862198
    9      O       1.2128278371     0.3050844126     2.6234302361
   10      H       1.1156395679     0.3869910023     1.6338817238
   11      H       1.8294196803    -0.3783418570     2.8770264940
   12      O       1.4412144611     1.2765673877     0.3548616345
   13      H       2.2583471350     0.8465109169     0.0969305181
   14      H       1.1820531998     1.9535852501    -0.2744680572
   15      O       4.0034498065     1.1969613996     0.2628972736
   16      H       3.9622983497     1.5718229868     1.1223294942
   17      H       4.7462353625     1.6985581934    -0.1533427656
   18      O       4.8465418079     4.6032436949     3.1143647204
   19      H       5.5525515860     4.0622862572     3.5151651455
   20      H       4.1907471155     4.0289269498     2.8441655638
   21      O       0.4195469317     2.5201519158     1.3716356081
   22      H      -0.0101741725     2.8572700343     2.1904880768
   23      H       1.2184555822     3.0171105279     1.3461297701
   24      O       5.5344985498     5.5257705108     4.9857856590
   25      H       6.0590588503     4.8122649716     4.8184586005
   26      H       4.8762723736     5.5319771139     4.3390309790
 ----------------------------------------------------------------
 Nuclear Repulsion Energy =         498.74723111 hartrees
 There are       40 alpha and       40 beta electrons
 Applying Cartesian multipole field
    Component          Value
    ---------          -----
     (2,0,0)        1.00000E-12
     (0,2,0)        2.00000E-12
     (0,0,2)       -3.00000E-11
 Nucleus-field energy     =    -0.0000000458 hartrees
 Guess from superposition of atomic densities
 Warning:  Energy on first SCF cycle will be non-variational
 SAD guess density has 80.000000 electrons
 SCF convergence criterion is 10**(-6)
 Long-range K will be added via erf
 Coulomb attenuation parameter = 0.4 bohr**(-1)
 A restricted Kohn-Sham SCF calculation will be
 performed using Pulay DIIS extrapolation
 Exchange:  wB97 + LR-HF      Correlation:  wB97
 Using SG-2 standard quadrature grid
 SCF converges when DIIS error is below 1.0E-06
 using 20 threads for integral computing
 -------------------------------------------------------
 OpenMP Integral computing Module                
 Release: version 1.0, May 2013, Q-Chem Inc. Pittsburgh 
 -------------------------------------------------------
 using 20 threads for integral computing
 -------------------------------------------------------
 OpenMP Integral computing Module                
 Release: version 1.0, May 2013, Q-Chem Inc. Pittsburgh 
 -------------------------------------------------------
 ---------------------------------------
  Cycle       Energy         DIIS Error
 ---------------------------------------
    1    -575.9727442734      6.12E-02
    2    -574.6515699852      1.28E-02
    3    -574.7916831931      1.10E-02
    4    -575.0384065218      6.65E-04
    5    -575.0394386742      3.30E-04
    6    -575.0396869898      9.63E-05
    7    -575.0397100236      2.24E-05
    8    -575.0397116398      6.57E-06
    9    -575.0397118988      2.38E-06
   10    -575.0397119214      8.85E-07 Convergence criterion met
 ---------------------------------------
 SCF time:  CPU 84.40 s  wall 4.76 s
 SCF   energy in the final basis set = -575.03971192
 Total energy in the final basis set = -575.03971192
 Calculating analytic gradient of the SCF energy
 Gradient of SCF Energy
            1           2           3           4           5           6
    1  -0.0321069   0.0248817  -0.0013549   0.0033549  -0.0112360  -0.0014137
    2  -0.0377494   0.0393723  -0.0066669   0.0013576   0.0050785   0.0331063
    3  -0.0086070   0.0091374  -0.0008033  -0.0330159   0.0114414   0.1821985
            7           8           9          10          11          12
    1   0.0252912  -0.0247645   0.0161546  -0.0006621  -0.0051366  -0.0439230
    2   0.0042276  -0.0117078   0.0014084   0.0045648   0.0109254   0.0655369
    3   0.0032498   0.0081119  -0.0023318  -0.0224307   0.0072118   0.0542643
           13          14          15          16          17          18
    1  -0.0107416  -0.0011267  -0.0334658   0.0049357   0.0140120  -0.0367241
    2  -0.0016800   0.0079186  -0.0031059  -0.0083481   0.0140436  -0.0325037
    3   0.0239173   0.0089041   0.0381657  -0.0304691  -0.0051013  -0.1405889
           19          20          21          22          23          24
    1   0.0183905   0.0314562   0.0987133   0.0005534  -0.0098080  -0.0125467
    2   0.0018471   0.0274495  -0.0674716  -0.0004490  -0.0086475  -0.0906337
    3   0.0099842   0.0045625  -0.0607293   0.0113646   0.0016502  -0.1032678
           25          26
    1  -0.0422025   0.0294694
    2   0.0521125   0.0000144
    3   0.0066393   0.0265419
 Max gradient component =       1.822E-01
 RMS gradient           =       4.000E-02
 Gradient time:  CPU 23.95 s  wall 1.35 s
 Time for this dynamics step: 111.9 s (CPU) 6.3 s (wall)

TIME STEP #9 (t = 120.000 a.u. = 2.90266 fs)
--------------------------------------
 Instantaneous Temperature = 597.0 K
 ----------------------------------------------------------------
             Standard Nuclear Orientation (Angstroms)
    I     Atom           X                Y                Z
 ----------------------------------------------------------------
    1      C       2.6956249075     2.7395830424     2.7196365526
    2      H       2.1826750704     1.9144387403     2.3917921378
    3      H       2.2450298769     3.6890781215     2.4653205355
    4      H       2.8208994274     2.7019895175     3.7667202798
    5      H       3.6966528962     2.7353615456     2.3490177123
    6      O       4.8959361396     4.3581273289     1.3222863535
    7      H       5.8106750451     4.5406436349     1.0077173065
    8      H       4.3567969382     3.9575794266     0.5877228770
    9      O       1.2118098875     0.3029624486     2.6238455005
   10      H       1.1204347772     0.3915620588     1.6430255919
   11      H       1.8365771706    -0.3651794337     2.8733572450
   12      O       1.4435167679     1.2750199443     0.3516725699
   13      H       2.2642118096     0.8580934503     0.0951638832
   14      H       1.1828135342     1.9426940858    -0.2718994365
   15      O       4.0046121506     1.1955655366     0.2639464270
   16      H       3.9698780661     1.5779570478     1.1172364709
   17      H       4.7359285055     1.6953098438    -0.1442102246
   18      O       4.8465591633     4.6025572129     3.1188695310
   19      H       5.5478806451     4.0707820577     3.5041490314
   20      H       4.2079894991     4.0198256965     2.8468711567
   21      O       0.4166671736     2.5217093348     1.3743356601
   22      H       0.0013102480     2.8593039035     2.1881193168
   23      H       1.1995419747     3.0235277326     1.3489529029
   24      O       5.5354005287     5.5277021270     4.9855982817
   25      H       6.0598430397     4.8156281958     4.8252566991
   26      H       4.8874175876     5.5233631462     4.3308552537
 ----------------------------------------------------------------
 Nuclear Repulsion Energy =         498.99382628 hartrees
 There are       40 alpha and       40 beta electrons
 Applying Cartesian multipole field
    Component          Value
    ---------          -----
     (2,0,0)        1.00000E-12
     (0,2,0)        2.00000E-12
     (0,0,2)       -3.00000E-11
 Nucleus-field energy     =    -0.0000000458 hartrees
 Guess from superposition of atomic densities
 Warning:  Energy on first SCF cycle will be non-variational
 SAD guess density has 80.000000 electrons
 SCF convergence criterion is 10**(-6)
 Long-range K will be added via erf
 Coulomb attenuation parameter = 0.4 bohr**(-1)
 A restricted Kohn-Sham SCF calculation will be
 performed using Pulay DIIS extrapolation
 Exchange:  wB97 + LR-HF      Correlation:  wB97
 Using SG-2 standard quadrature grid
 SCF converges when DIIS error is below 1.0E-06
 using 20 threads for integral computing
 -------------------------------------------------------
 OpenMP Integral computing Module                
 Release: version 1.0, May 2013, Q-Chem Inc. Pittsburgh 
 -------------------------------------------------------
 using 20 threads for integral computing
 -------------------------------------------------------
 OpenMP Integral computing Module                
 Release: version 1.0, May 2013, Q-Chem Inc. Pittsburgh 
 -------------------------------------------------------
 ---------------------------------------
  Cycle       Energy         DIIS Error
 ---------------------------------------
    1    -576.0521860272      6.20E-02
    2    -574.6569459543      1.28E-02
    3    -574.8007239288      1.09E-02
    4    -575.0433334398      6.46E-04
    5    -575.0443240218      3.12E-04
    6    -575.0445476634      9.40E-05
    7    -575.0445692524      2.14E-05
    8    -575.0445707031      6.17E-06
    9    -575.0445709355      2.14E-06
   10    -575.0445709559      8.34E-07 Convergence criterion met
 ---------------------------------------
 SCF time:  CPU 79.82 s  wall 4.42 s
 SCF   energy in the final basis set = -575.04457096
 Total energy in the final basis set = -575.04457096
 Calculating analytic gradient of the SCF energy
 Gradient of SCF Energy
            1           2           3           4           5           6
    1  -0.0321864   0.0256031   0.0010671   0.0036519  -0.0140764   0.0039012
    2  -0.0357833   0.0394259  -0.0093957   0.0016371   0.0054267   0.0323492
    3  -0.0114750   0.0096808   0.0003138  -0.0321626   0.0127195   0.1718321
            7           8           9          10          11          12
    1   0.0170218  -0.0214641   0.0203940  -0.0000553  -0.0100664  -0.0431244
    2   0.0026210  -0.0101229  -0.0029778   0.0041156   0.0158489   0.0695707
    3   0.0052157   0.0102860  -0.0069915  -0.0155241   0.0052281   0.0456381
           13          14          15          16          17          18
    1  -0.0130448   0.0021758  -0.0262174   0.0064518   0.0049561  -0.0323663
    2   0.0001632  -0.0001318   0.0025016  -0.0090431   0.0089504  -0.0427420
    3   0.0240779   0.0153210   0.0349973  -0.0345672   0.0019130  -0.1318026
           19          20          21          22          23          24
    1   0.0061698   0.0386408   0.1036420   0.0066276  -0.0228575  -0.0112624
    2   0.0084384   0.0324513  -0.0571505  -0.0020367  -0.0150547  -0.0934572
    3   0.0036354   0.0087762  -0.0540753   0.0035147   0.0040645  -0.1040724
           25          26
    1  -0.0453961   0.0318144
    2   0.0557282  -0.0013325
    3   0.0062243   0.0272323
 Max gradient component =       1.718E-01
 RMS gradient           =       3.914E-02
 Gradient time:  CPU 24.19 s  wall 1.87 s
 Time for this dynamics step: 109.9 s (CPU) 6.6 s (wall)

TIME STEP #10 (t = 135.000 a.u. = 3.26549 fs)
--------------------------------------
 Instantaneous Temperature = 636.4 K
 ----------------------------------------------------------------
             Standard Nuclear Orientation (Angstroms)
    I     Atom           X                Y                Z
 ----------------------------------------------------------------
    1      C       2.6925539352     2.7403660852     2.7208915475
    2      H       2.1897000234     1.9075028108     2.3882810519
    3      H       2.2438252217     3.6864541238     2.4711258198
    4      H       2.8199868874     2.7008802653     3.7707322336
    5      H       3.6912367539     2.7457920614     2.3518151434
    6      O       4.8955969552     4.3572207741     1.3153081732
    7      H       5.7985552193     4.5514490267     1.0090809698
    8      H       4.3718019848     3.9623868519     0.5771929103
    9      O       1.2107086575     0.3008526449     2.6242893153
   10      H       1.1252335680     0.3958663868     1.6531755630
   11      H       1.8443870562    -0.3530441648     2.8693491654
   12      O       1.4459951770     1.2731884028     0.3482971380
   13      H       2.2709219052     0.8696654048     0.0918367812
   14      H       1.1834328555     1.9318114630    -0.2703237595
   15      O       4.0058815557     1.1941594578     0.2648526661
   16      H       3.9770396444     1.5846771856     1.1143837172
   17      H       4.7253004487     1.6914814272    -0.1352016647
   18      O       4.8467086893     4.6020452718     3.1239125691
   19      H       5.5428098430     4.0787309752     3.4928973097
   20      H       4.2227276042     4.0086213048     2.8490079735
   21      O       0.4133641844     2.5235001328     1.3772565331
   22      H       0.0123651418     2.8614697703     2.1855227693
   23      H       1.1821097446     3.0309206190     1.3515126191
   24      O       5.5363484985     5.5300153837     4.9858358930
   25      H       6.0635693112     4.8153797224     4.8316514033
   26      H       4.8965009362     5.5148355398     4.3209146238
 ----------------------------------------------------------------
 Nuclear Repulsion Energy =         499.10136113 hartrees
 There are       40 alpha and       40 beta electrons
 Applying Cartesian multipole field
    Component          Value
    ---------          -----
     (2,0,0)        1.00000E-12
     (0,2,0)        2.00000E-12
     (0,0,2)       -3.00000E-11
 Nucleus-field energy     =    -0.0000000458 hartrees
 Guess from superposition of atomic densities
 Warning:  Energy on first SCF cycle will be non-variational
 SAD guess density has 80.000000 electrons
 SCF convergence criterion is 10**(-6)
 Long-range K will be added via erf
 Coulomb attenuation parameter = 0.4 bohr**(-1)
 A restricted Kohn-Sham SCF calculation will be
 performed using Pulay DIIS extrapolation
 Exchange:  wB97 + LR-HF      Correlation:  wB97
 Using SG-2 standard quadrature grid
 SCF converges when DIIS error is below 1.0E-06
 using 20 threads for integral computing
 -------------------------------------------------------
 OpenMP Integral computing Module                
 Release: version 1.0, May 2013, Q-Chem Inc. Pittsburgh 
 -------------------------------------------------------
 using 20 threads for integral computing
 -------------------------------------------------------
 OpenMP Integral computing Module                
 Release: version 1.0, May 2013, Q-Chem Inc. Pittsburgh 
 -------------------------------------------------------
 ---------------------------------------
  Cycle       Energy         DIIS Error
 ---------------------------------------
    1    -576.1164080573      6.26E-02
    2    -574.6628820165      1.29E-02
    3    -574.8097593040      1.09E-02
    4    -575.0487972609      6.26E-04
    5    -575.0497468993      2.93E-04
    6    -575.0499463803      9.17E-05
    7    -575.0499666632      2.05E-05
    8    -575.0499679701      5.83E-06
[...]
 ----------------------------------------------------------------
             Standard Nuclear Orientation (Angstroms)
    I     Atom           X                Y                Z
 ----------------------------------------------------------------
    1      C       2.5978157700     2.7956091339     3.0185331913
    2      H       1.8096351639     2.0611963089     3.0206384803
    3      H       2.3061792406     3.8184428890     3.0223084774
    4      H       3.1739021433     2.6611080152     3.9024712455
    5      H       3.2513070566     2.6245889224     2.1982462337
    6      O       4.9037450269     4.1744015475    -0.0725805983
    7      H       4.0629508295     4.5184328465     0.3427089776
    8      H       5.4941058854     4.9604937725    -0.1610881023
    9      O       1.1030206418    -0.0163479941     2.7877941319
   10      H       0.5472727071     0.5359830116     2.1694192423
   11      H       1.8947048796    -0.2020429726     2.2286518155
   12      O       1.8309243171     0.8046077910    -0.2985132213
   13      H       2.3242763559     1.4647646077    -0.8440735690
   14      H       0.8894166893     0.9046819497    -0.6411186371
   15      O       4.3290340123     1.0801439696     0.3156084422
   16      H       3.8238503065     1.5973719508     0.9493864603
   17      H       5.2345430117     1.4963001458     0.0748781505
   18      O       4.8344944211     4.3449677548     3.5813645816
   19      H       5.7047298638     4.5677632092     3.0510706475
   20      H       4.1533015277     4.1212744167     2.9566420674
   21      O      -0.3917036207     3.0028426413     1.7585319135
   22      H      -0.3670423382     3.3266782202     2.7214701761
   23      H       0.1959742116     3.5338567411     1.1674134879
   24      O       5.9686324930     6.1287915706     5.6826928085
   25      H       6.2284484971     5.4468015490     6.3507371281
   26      H       5.0141934370     6.0407789463     5.3900614626
 ----------------------------------------------------------------
 Nuclear Repulsion Energy =         418.93285736 hartrees
 There are       40 alpha and       40 beta electrons
 Applying Cartesian multipole field
    Component          Value
    ---------          -----
     (2,0,0)        1.00000E-12
     (0,2,0)        2.00000E-12
     (0,0,2)       -3.00000E-11
 Nucleus-field energy     =    -0.0000000589 hartrees
 Extrapolating the Fock matrix using 12 points and a 6th-order polynomial
 Skip SCF guess (diagonalize extrapolated Fock matrix instead)
 SCF convergence criterion is 10**(-6)
 Long-range K will be added via erf
 Coulomb attenuation parameter = 0.4 bohr**(-1)
 A restricted Kohn-Sham SCF calculation will be
 performed using Pulay DIIS extrapolation
 Exchange:  wB97 + LR-HF      Correlation:  wB97
 Using SG-2 standard quadrature grid
 SCF converges when DIIS error is below 1.0E-06
 ---------------------------------------
  Cycle       Energy         DIIS Error
 ---------------------------------------
    1   -1204.5869284148      7.20E-04
    2    -761.0149951817      2.80E+00
    3    -761.0059158060      2.80E+00
    4    -761.0015385711      2.80E+00
    5    -761.0010404413      2.80E+00
    6    -760.9966555946      2.80E+00
    7    -760.9977013697      2.80E+00
    8    -760.9977012776      2.80E+00
    9   -3522.2131075375      2.46E-01
   10   -3575.5507973933      1.05E-01
   11   -3566.1655287999      1.38E-02
   12   -3567.2644449306      1.57E-03
   13   -3567.2006956095      3.40E-04
   14   -3567.2122851762      4.59E-05
   15    -360.1128426066      4.70E-01
   16    -360.1117627291      4.70E-01
   17    -360.1117252086      4.70E-01
   18    -438.0884549463      1.22E-01
   19    -209.3307593256      1.48E-01
   20    -502.9818960353      6.85E-02
   21    -440.2107923492      1.29E-01
   22    -558.0371875548      5.91E-02
   23    -568.8728203320      3.89E-02
   24    -564.8111631618      3.65E-02
   25    -567.9821253787      3.37E-02
   26    -574.6849644072      1.48E-02
   27    -575.0180195261      8.97E-03
   28    -575.1364055053      6.44E-03
   29    -575.2200605329      2.86E-03
   30    -575.2335993183      1.83E-03
   31    -575.2410771851      8.47E-04
   32    -575.2430432717      1.95E-04
   33    -575.2431518586      1.02E-04
   34    -575.2431777638      2.08E-05
   35    -575.2431790950      6.87E-06
   36    -575.2431792805      2.31E-06
   37    -575.2431793114      6.24E-07 Convergence criterion met
 ---------------------------------------
 SCF time:  CPU 242.61 s  wall 12.58 s
 SCF   energy in the final basis set = -575.24317931
 Total energy in the final basis set = -575.24317931
 Calculating analytic gradient of the SCF energy
 Gradient of SCF Energy
            1           2           3           4           5           6
    1   0.0047263   0.0115296   0.0179571  -0.0124752  -0.0133888   0.0124830
    2   0.0111188   0.0021915  -0.0207058   0.0062817   0.0043181  -0.0183098
    3  -0.0087854   0.0032907   0.0028563  -0.0186624   0.0198285  -0.0139464
            7           8           9          10          11          12
    1  -0.0265015   0.0144891   0.0018212  -0.0138263   0.0136341   0.0331192
    2   0.0062119   0.0135847  -0.0117588   0.0124918  -0.0031892  -0.0211145
    3   0.0140352  -0.0026883   0.0264580  -0.0146628  -0.0068275   0.0217446
           13          14          15          16          17          18
    1   0.0019985  -0.0303850  -0.0435455  -0.0098940   0.0502750  -0.0630828
    2   0.0179826   0.0051859  -0.0004846  -0.0077444   0.0071191  -0.0236399
    3  -0.0133082  -0.0133217   0.0259521   0.0002002  -0.0228892   0.0102195
           19          20          21          22          23          24
    1   0.0543053  -0.0009686  -0.0019593  -0.0084540   0.0097138   0.0105263
    2   0.0139622   0.0000370  -0.0069010   0.0055753   0.0056874   0.0006341
    3  -0.0284617   0.0154571  -0.0204583   0.0473307  -0.0266120   0.0003912
           25          26
    1   0.0216384  -0.0337358
    2  -0.0116595   0.0131252
    3   0.0190963  -0.0162367
 Max gradient component =       6.308E-02
 RMS gradient           =       1.979E-02
 Gradient time:  CPU 21.66 s  wall 1.33 s
 Time for this dynamics step: 269.4 s (CPU) 14.2 s (wall)

TIME STEP #99 (t = 1470.000 a.u. = 35.55760 fs)
--------------------------------------
 Instantaneous Temperature = 2244.1 K
 ----------------------------------------------------------------
             Standard Nuclear Orientation (Angstroms)
    I     Atom           X                Y                Z
 ----------------------------------------------------------------
    1      C       2.5980487843     2.7972054989     3.0223760937
    2      H       1.7936061939     2.0647311202     3.0357133601
    3      H       2.3029694327     3.8118232715     3.0275792662
    4      H       3.1808495290     2.6555915662     3.9039996046
    5      H       3.2388403107     2.6221402095     2.1980351609
    6      O       4.9043293578     4.1731819631    -0.0890325042
    7      H       4.0398530498     4.4992596884     0.3125557466
    8      H       5.4998496097     4.9708498807    -0.1490776419
    9      O       1.1023833516    -0.0205655228     2.7891218382
   10      H       0.5299449574     0.5389853251     2.1741133531
   11      H       1.8862615356    -0.2069141037     2.2228717622
   12      O       1.8330659057     0.7992895392    -0.3064928640
   13      H       2.3318141245     1.4638395498    -0.8459650406
   14      H       0.8917174287     0.8884878909    -0.6437065717
   15      O       4.3346417197     1.0791161104     0.3153923584
   16      H       3.8202747824     1.5907520654     0.9399893187
   17      H       5.2425862808     1.4969961268     0.0831982457
   18      O       4.8350368737     4.3416956799     3.5838969209
   19      H       5.7055949211     4.5767006325     3.0601281754
   20      H       4.1552787869     4.1278353139     2.9665908672
   21      O      -0.4023489587     3.0088338998     1.7621124594
   22      H      -0.3708457574     3.3300463695     2.7273073808
   23      H       0.1823470451     3.5328003744     1.1725325088
   24      O       5.9744686468     6.1361347454     5.6935215918
   25      H       6.2236518768     5.4705894155     6.3606530834
   26      H       5.0299508723     6.0522635258     5.4087756576
 ----------------------------------------------------------------
 Nuclear Repulsion Energy =         418.20152446 hartrees
 There are       40 alpha and       40 beta electrons
 Applying Cartesian multipole field
    Component          Value
    ---------          -----
     (2,0,0)        1.00000E-12
     (0,2,0)        2.00000E-12
     (0,0,2)       -3.00000E-11
 Nucleus-field energy     =    -0.0000000591 hartrees
 Extrapolating the Fock matrix using 12 points and a 6th-order polynomial
 Skip SCF guess (diagonalize extrapolated Fock matrix instead)
 SCF convergence criterion is 10**(-6)
 Long-range K will be added via erf
 Coulomb attenuation parameter = 0.4 bohr**(-1)
 A restricted Kohn-Sham SCF calculation will be
 performed using Pulay DIIS extrapolation
 Exchange:  wB97 + LR-HF      Correlation:  wB97
 Using SG-2 standard quadrature grid
 SCF converges when DIIS error is below 1.0E-06
 ---------------------------------------
  Cycle       Energy         DIIS Error
 ---------------------------------------
    1   -1203.9335708450      7.03E-04
    2  -63050.4331196759      3.09E+03
    3  -63053.0555463972      3.10E+03
    4  -63051.9460252071      3.10E+03
    5  -63051.6780490407      3.10E+03
    6  -63051.9287871569      3.10E+03
    7  -63051.9218275683      3.10E+03
    8  -63051.9263177902      3.10E+03
    9  -63051.7346540457      3.10E+03
   10  -63051.8246791947      3.10E+03
   11  -63053.9888774226      3.10E+03
   12  -63059.3160107196      3.10E+03
   13  -63049.6965243008      3.09E+03
   14  -63049.9017399289      3.09E+03
   15    -575.2422748230      1.00E-04
   16    -575.2422793180      8.65E-06
   17    -575.2422793887      5.56E-06
   18    -575.2422794631      6.19E-07 Convergence criterion met
 ---------------------------------------
 SCF time:  CPU 109.21 s  wall 5.82 s
 SCF   energy in the final basis set = -575.24227946
 Total energy in the final basis set = -575.24227946
 Calculating analytic gradient of the SCF energy
 Gradient of SCF Energy
            1           2           3           4           5           6
    1   0.0110209   0.0049310   0.0183397  -0.0113647  -0.0148529   0.0130199
    2   0.0211787  -0.0021234  -0.0264584   0.0055821   0.0050352  -0.0248493
    3  -0.0131086   0.0036450   0.0024101  -0.0166964   0.0224761  -0.0154632
            7           8           9          10          11          12
    1  -0.0334618   0.0208854   0.0091743  -0.0198612   0.0123797   0.0291105
    2   0.0065108   0.0199054  -0.0167199   0.0175810  -0.0034351  -0.0208052
    3   0.0160126  -0.0031347   0.0296627  -0.0194081  -0.0053669   0.0203306
           13          14          15          16          17          18
    1   0.0046569  -0.0293118  -0.0463791  -0.0077295   0.0512827  -0.0700072
    2   0.0193465   0.0035370   0.0018432  -0.0103328   0.0072239  -0.0261752
    3  -0.0135922  -0.0115084   0.0288128  -0.0030229  -0.0226773   0.0025313
           19          20          21          22          23          24
    1   0.0548447   0.0055032   0.0012259  -0.0081212   0.0061695   0.0055993
    2   0.0147844   0.0018601  -0.0039805   0.0058417   0.0025195  -0.0082026
    3  -0.0275834   0.0222097  -0.0251265   0.0485584  -0.0232639   0.0061117
           25          26
    1   0.0173792  -0.0244334
    2  -0.0028780   0.0132108
    3   0.0102064  -0.0130148
 Max gradient component =       7.001E-02
 RMS gradient           =       2.080E-02
 Gradient time:  CPU 20.81 s  wall 1.05 s
 Time for this dynamics step: 136.2 s (CPU) 7.2 s (wall)

TIME STEP #100 (t = 1485.000 a.u. = 35.92043 fs)
--------------------------------------
 Instantaneous Temperature = 2236.8 K
 ----------------------------------------------------------------
             Standard Nuclear Orientation (Angstroms)
    I     Atom           X                Y                Z
 ----------------------------------------------------------------
    1      C       2.5982218114     2.7986865873     3.0262903469
    2      H       1.7772576531     2.0684035469     3.0505520130
    3      H       2.2985710423     3.8069183972     3.0326938567
    4      H       3.1885334491     2.6497133434     3.9066100410
    5      H       3.2273361705     2.6193651667     2.1963674301
    6      O       4.9048605208     4.1720638528    -0.1054212646
    7      H       4.0189239006     4.4796645711     0.2813647514
    8      H       5.5042397719     4.9799159390    -0.1368640263
    9      O       1.1017085975    -0.0247147743     2.7903284143
   10      H       0.5139043978     0.5408482303     2.1800652862
   11      H       1.8770158734    -0.2115626108     2.2174395345
   12      O       1.8350886192     0.7940562472    -0.3145555286
   13      H       2.3390500814     1.4616606598    -0.8469756145
   14      H       0.8959178435     0.8720646019    -0.6455486562
   15      O       4.3404388202     1.0780807245     0.3150586153
   16      H       3.8172002019     1.5848018419     0.9307880919
   17      H       5.2473059600     1.4972239329     0.0929880372
   18      O       4.8358652069     4.3385304939     3.5864189237
   19      H       5.7029055382     4.5846798902     3.0709733575
   20      H       4.1568993885     4.1342756573     2.9751002776
   21      O      -0.4129993027     3.0148414128     1.7657956115
   22      H      -0.3741228513     3.3330359216     2.7299975604
   23      H       0.1683200357     3.5315807229     1.1791592415
   24      O       5.9802819352     6.1435114162     5.7043254174
   25      H       6.2177289263     5.4945638054     6.3699075687
   26      H       5.0472918131     6.0628919274     5.4283333316
 ----------------------------------------------------------------
 Nuclear Repulsion Energy =         417.56020458 hartrees
 There are       40 alpha and       40 beta electrons
 Applying Cartesian multipole field
    Component          Value
    ---------          -----
     (2,0,0)        1.00000E-12
     (0,2,0)        2.00000E-12
     (0,0,2)       -3.00000E-11
 Nucleus-field energy     =    -0.0000000594 hartrees
 Extrapolating the Fock matrix using 12 points and a 6th-order polynomial
 Skip SCF guess (diagonalize extrapolated Fock matrix instead)
 SCF convergence criterion is 10**(-6)
 Long-range K will be added via erf
 Coulomb attenuation parameter = 0.4 bohr**(-1)
 A restricted Kohn-Sham SCF calculation will be
 performed using Pulay DIIS extrapolation
 Exchange:  wB97 + LR-HF      Correlation:  wB97
 Using SG-2 standard quadrature grid
 SCF converges when DIIS error is below 1.0E-06
 ---------------------------------------
  Cycle       Energy         DIIS Error
 ---------------------------------------
    1   -1203.3417340581      6.88E-04
    2    -542.2445543304      3.47E+00
    3    -542.2522425614      3.47E+00
    4    -542.2486508365      3.47E+00
    5    -542.2489222038      3.47E+00
    6    -542.2487054270      3.47E+00
    7    -542.2484269968      3.47E+00
    8    -542.2474627260      3.47E+00
    9   -1873.8972399768      9.84E+00
   10   -1876.2443989174      9.84E+00
   11   -1877.0584222241      9.84E+00
   12   -1877.3995509333      9.84E+00
   13   -1877.3306568973      9.84E+00
   14   -1897.3382884492      9.83E+00
   15    -361.6169625768      4.62E-01
   16    -516.1748093284      9.81E-02
   17    -299.0242441479      1.26E-01
   18    -493.5551255854      9.30E-02
   19    -550.3797349801      6.59E-02
   20    -548.6634533692      5.35E-02
   21    -574.3162006548      1.99E-02
   22    -574.5803709041      1.63E-02
   23    -575.2126412432      3.32E-03
   24    -575.2358451664      1.53E-03
   25    -575.2410053709      5.41E-04
   26    -575.2417931072      1.99E-04
   27    -575.2419216811      5.03E-05
   28    -575.2419301954      1.68E-05
   29    -575.2419310097      7.56E-06
   30    -575.2419311226      3.34E-06
   31    -575.2419311629      6.21E-07 Convergence criterion met
 ---------------------------------------
 SCF time:  CPU 207.86 s  wall 10.82 s
 SCF   energy in the final basis set = -575.24193116
 Total energy in the final basis set = -575.24193116
 Calculating analytic gradient of the SCF energy
 Gradient of SCF Energy
            1           2           3           4           5           6
    1   0.0160976  -0.0015533   0.0182077  -0.0096169  -0.0152986   0.0132711
    2   0.0298675  -0.0060709  -0.0307173   0.0046685   0.0054534  -0.0297613
    3  -0.0171659   0.0041039   0.0019523  -0.0138637   0.0238762  -0.0167208
            7           8           9          10          11          12
    1  -0.0391915   0.0263523   0.0159682  -0.0247075   0.0105141   0.0240999
    2   0.0061584   0.0252511  -0.0207075   0.0214994  -0.0034641  -0.0195781
    3   0.0171284  -0.0029739   0.0311245  -0.0227833  -0.0035348   0.0177011
           13          14          15          16          17          18
    1   0.0066837  -0.0266105  -0.0469742  -0.0056368   0.0500855  -0.0739135
    2   0.0199105   0.0017923   0.0045093  -0.0124253   0.0065195  -0.0276038
    3  -0.0131878  -0.0091526   0.0305769  -0.0058053  -0.0217773  -0.0051628
           19          20          21          22          23          24
    1   0.0531406   0.0111585   0.0050529  -0.0076973   0.0018935  -0.0010761
    2   0.0149554   0.0032147   0.0000055   0.0055640  -0.0011917  -0.0181432
    3  -0.0255801   0.0278192  -0.0286287   0.0475987  -0.0188984   0.0127063
           25          26
    1   0.0124781  -0.0127276
    2   0.0070797   0.0132139
    3  -0.0003966  -0.0089556
 Max gradient component =       7.391E-02
 RMS gradient           =       2.163E-02
 Gradient time:  CPU 21.03 s  wall 1.06 s
 Time for this dynamics step: 233.7 s (CPU) 12.1 s (wall)

=============== TIME STEPS COMPLETED ==================

Step-to-Step energy fluctuations, |E(n) - E(n-1)|
Mean: -1.518e-06   Max: 3.990e-05   RMS: 1.685e-05
Overall energy fluctuations, |E(n) - E(0)|
Mean: -1.463e-04   Max: 2.232e-04   RMS: 4.200e-05   RMS(dE)/RMS(dV): 5.270e-04
Kinetic energy fluctuations, |T(n) - V(0)|
Mean: 1.789e-01   Max: 2.450e-01   RMS: 7.967e-02
Potential energy fluctuations, |V(n) - V(0)|
Mean: -1.790e-01   Max: 2.452e-01   RMS: 7.969e-02


Archival summary:
1\1\halstead-a021.rcac.purdue.edu\JobtypUnspecified\ProcedureUnspecified\6-31G*\7118\cviquezr\SatDec2621:20:312020SatDec2621:20:312020\0\\#,JobtypUnspecified,ProcedureUnspecified,6-31G*,\\0,1\O\H,1,0.953765\H,1,1.02343,2,114.118\H,2,1.7378,1,166.57,3,-30.6006,0\C,4,1.05675,2,151.05,1,-130.256,0\H,5,1.05184,4,109.697,2,-145.786,0\H,5,1.07034,4,107.096,2,98.9116,0\H,5,1.09904,4,110.444,2,-17.9031,0\H,6,1.88782,5,83.4309,4,-54.585,0\O,9,0.936176,6,137.041,5,-97.6583,0\H,10,1.03828,9,109.463,6,-170.892,0\H,8,2.165,5,153.617,4,-15.6146,0\O,12,1.01872,8,79.2892,5,105.626,0\H,13,0.981945,12,102.223,8,-86.8629,0\H,2,2.31528,1,79.9964,3,123.178,0\O,15,0.991536,2,87.0192,1,105.253,0\H,16,0.998841,15,104.322,2,153.17,0\H,8,2.51605,5,107.573,4,-115.803,0\O,18,1.01609,8,89.783,5,103.149,0\H,19,0.974215,18,112.487,8,-79.6844,0\H,10,2.53195,9,133.172,6,-49.526,0\O,21,0.97629,10,109.98,9,-164.957,0\H,22,0.959434,21,112.134,10,-85.7803,0\O,3,2.70396,1,107.989,2,-39.0801,0\H,24,1.00641,3,136.131,1,166.383,0\H,24,1.01445,3,112.494,1,14.554,0\\\@

 Total job time:  1480.96s(wall), 25996.66s(cpu) 
 Sat Dec 26 21:20:31 2020

        *************************************************************
        *                                                           *
        *  Thank you very much for using Q-Chem.  Have a nice day.  *
        *                                                           *
        *************************************************************


